/*--------------------------------*- C++ -*----------------------------------*\
  =========                 |
  \\      /  F ield         | OpenFOAM: The Open Source CFD Toolbox
   \\    /   O peration     | Website:  https://openfoam.org
    \\  /    A nd           | Version:  6
     \\/     M anipulation  |
\*---------------------------------------------------------------------------*/
FoamFile
{
    version     2.0;
    format      ascii;
    class       volScalarField;
    location    "0";
    object      Cs.air;
}
// * * * * * * * * * * * * * * * * * * * * * * * * * * * * * * * * * * * * * //

dimensions      [0 0 0 0 0 0 0];

internalField   nonuniform List<scalar> 
125840
(
-3.3015e-07
7.11168e-07
-1.4963e-06
5.68971e-08
4.86982e-06
3.53175e-06
-1.76615e-06
-1.05752e-07
5.8393e-06
7.99135e-06
5.35118e-06
1.99649e-06
1.34815e-07
-3.74824e-06
-1.61428e-06
4.53374e-07
1.72909e-06
5.13668e-06
6.83445e-06
1.04988e-06
-5.16834e-06
-3.52731e-06
-2.53808e-06
-1.20341e-06
-4.87296e-07
2.5619e-06
1.00237e-05
8.11982e-06
6.0306e-07
1.99323e-06
4.04385e-06
1.80234e-06
-2.71103e-07
-2.86444e-06
-3.44459e-06
4.42996e-07
4.63944e-06
5.6055e-06
1.18308e-06
1.26908e-06
5.82417e-07
-3.80362e-06
-1.02219e-05
-5.66944e-06
-8.27329e-06
1.30323e-06
6.85367e-07
-4.6213e-06
-1.487e-07
1.77538e-06
5.83624e-07
-6.80886e-07
3.8488e-07
3.86329e-06
4.67901e-06
1.39603e-05
1.25001e-05
-5.05454e-06
-5.76318e-06
-3.14291e-06
6.3525e-07
4.27916e-06
6.13436e-06
-4.41736e-06
-7.83792e-06
-1.45044e-06
3.80391e-06
1.45194e-06
-2.69586e-07
1.87691e-06
1.01417e-06
-3.51855e-06
-4.80195e-06
-4.26024e-06
-4.10497e-06
-3.25671e-06
4.57977e-07
4.42121e-07
-2.75301e-06
1.0267e-06
3.64209e-06
6.25662e-07
-6.11537e-06
-5.60629e-06
-1.59076e-07
7.53131e-06
4.67167e-06
-1.11495e-05
-1.25127e-06
3.43026e-07
1.1056e-06
-3.09505e-06
2.99232e-06
8.46318e-06
8.10615e-06
5.40082e-06
5.60648e-06
1.25585e-05
3.9636e-06
-3.54167e-06
-6.00785e-06
2.36282e-06
8.14983e-06
8.00319e-06
4.76625e-06
-4.18073e-06
-5.30862e-06
4.31473e-06
1.02399e-05
2.71155e-06
-2.27359e-06
2.76719e-06
5.53734e-06
2.19698e-06
-5.11945e-06
-3.78081e-06
1.06904e-07
-5.47855e-07
-4.18799e-07
2.72752e-07
2.18791e-06
1.76181e-06
4.01948e-07
-3.73051e-06
-7.27496e-06
-3.04698e-06
1.25604e-06
-4.2366e-06
-1.87126e-06
4.2481e-06
8.93653e-06
6.71672e-06
1.02361e-05
6.12769e-06
3.86436e-06
1.99619e-06
-1.9677e-06
-6.90804e-06
-4.00879e-06
-4.2134e-07
1.50898e-06
7.62111e-06
-5.51514e-06
-1.31672e-05
-8.46252e-06
-1.63383e-06
2.49659e-06
3.80532e-06
3.10751e-06
9.65079e-07
-7.48204e-07
1.84853e-06
2.84732e-06
-2.28902e-06
-3.03551e-06
5.50641e-07
4.85403e-06
6.20649e-06
4.51351e-06
5.9426e-06
3.8675e-06
8.33381e-07
4.31013e-07
1.22026e-06
-1.38908e-06
-5.66677e-06
-1.42705e-06
2.99158e-06
-1.07673e-07
-2.85633e-06
3.72073e-06
7.73723e-06
-2.15471e-06
-6.33715e-06
8.04645e-07
8.2478e-06
7.10919e-06
2.99408e-06
-4.90296e-07
-8.39213e-07
-1.56186e-07
-6.34505e-07
-1.76071e-06
-1.80494e-07
5.99888e-06
9.95942e-06
5.32503e-06
3.42566e-07
-7.83485e-08
7.78693e-07
2.79339e-06
2.80594e-06
1.28027e-06
9.03799e-07
2.95548e-06
1.55887e-06
-3.36156e-06
-2.84066e-06
1.15026e-06
3.31179e-06
2.25278e-06
-3.78159e-09
-1.71421e-06
1.6909e-06
3.96201e-06
1.08961e-06
-1.52851e-06
-7.03714e-07
1.14424e-06
6.07028e-07
3.35433e-07
1.95518e-06
4.80632e-08
-1.22355e-06
2.89073e-06
4.94262e-06
3.06904e-06
-3.12878e-06
2.38365e-06
9.29369e-06
-6.29116e-06
-2.08507e-06
-3.37401e-06
-2.64053e-06
2.83485e-07
1.67635e-06
-5.4367e-07
-8.24487e-07
1.52252e-06
2.8835e-06
4.07357e-06
5.13261e-06
6.12567e-06
4.74352e-06
2.09726e-06
3.9228e-07
-7.36043e-07
-8.68976e-07
8.03912e-07
-3.90007e-07
-1.07502e-06
2.01746e-06
5.20219e-06
4.36034e-06
3.82366e-07
-3.27644e-06
-3.02951e-06
1.38389e-06
3.73639e-06
1.45755e-06
-2.15059e-06
-1.69666e-06
-8.95234e-07
-4.24374e-07
-1.90461e-06
-2.44359e-06
1.00777e-06
1.66373e-06
-1.33125e-06
-1.09128e-06
3.85822e-06
9.68827e-06
4.43084e-06
-5.14741e-06
-4.97891e-06
-8.52559e-06
-6.14909e-06
-2.54827e-06
1.82757e-07
2.54739e-06
1.53094e-06
6.03636e-08
2.52737e-07
2.10793e-06
6.20111e-06
8.95256e-06
5.17622e-06
3.93597e-07
1.64491e-07
8.13775e-07
-1.03587e-06
-2.2681e-06
-1.10273e-06
8.48292e-07
2.64261e-06
4.15956e-06
-1.36831e-06
-3.92422e-06
-4.98312e-07
2.57483e-06
8.91303e-07
-2.73886e-07
-1.8231e-06
-4.87654e-06
-2.94019e-06
-5.47575e-07
-1.2595e-06
-7.30229e-06
-7.78248e-06
-3.11856e-06
3.50256e-06
3.57371e-06
1.04492e-06
2.41206e-06
5.56733e-06
4.70753e-06
7.12749e-07
-7.72063e-07
-3.5045e-06
-2.21737e-06
-1.90031e-06
-2.44817e-06
2.49894e-06
6.97686e-06
3.44351e-06
1.99782e-06
2.11449e-06
7.50362e-07
2.24265e-06
3.18282e-06
2.1879e-08
-3.1121e-06
-4.72667e-06
-4.55325e-06
-3.75784e-06
-1.76195e-06
-7.8165e-07
-3.24858e-08
-3.06626e-06
-2.13374e-06
-1.08207e-06
-4.71117e-06
-4.72845e-06
-2.15155e-06
-3.25999e-07
1.43527e-06
3.0287e-06
-9.6666e-07
-3.03812e-06
-3.94268e-06
-4.84702e-06
-2.49042e-06
7.08812e-06
8.40781e-06
4.3553e-06
7.78653e-07
-1.65944e-07
-3.67054e-07
-6.21766e-07
-4.19937e-06
-2.24162e-06
7.63428e-08
-2.10505e-06
8.02877e-07
3.41153e-06
4.80988e-06
3.96826e-06
-1.87978e-06
-3.59112e-06
-3.10875e-06
2.02328e-06
5.29288e-06
-2.42027e-06
-7.18537e-06
-3.11403e-06
-1.28811e-07
3.25897e-08
-1.21809e-06
-5.27903e-07
1.2843e-06
7.2626e-07
4.80362e-07
-3.70511e-06
-4.22511e-06
-2.26953e-06
-3.10865e-06
-2.84352e-06
-1.7776e-06
1.74598e-06
3.43322e-06
1.51832e-06
1.35424e-07
4.69355e-06
3.70355e-06
6.54619e-07
3.9688e-06
1.0847e-05
3.29952e-06
-2.86967e-06
-2.28356e-06
-2.04741e-06
-5.6574e-07
1.66383e-06
-8.25912e-07
-1.18264e-06
-1.48454e-07
-5.25507e-06
-4.96135e-06
-2.83446e-06
-3.12799e-06
-4.48496e-06
-6.53363e-06
-2.34087e-06
-2.64124e-06
-2.01978e-06
1.84578e-06
3.96731e-06
1.00003e-06
4.13533e-07
-1.07265e-08
-8.45719e-08
2.54636e-06
7.23239e-06
9.18747e-06
4.56089e-06
-1.93371e-06
-1.75576e-06
-1.39169e-06
-3.09596e-06
-1.37519e-06
2.7446e-06
4.14123e-06
2.02066e-06
-3.68252e-06
-5.60981e-06
-9.43769e-07
2.47081e-06
7.5103e-06
8.95867e-06
-2.96918e-06
-9.38495e-06
-4.5412e-06
-2.25247e-06
-1.40393e-06
-8.51892e-07
-2.3471e-06
-2.06393e-06
-3.687e-07
2.33361e-06
-2.06648e-07
7.36132e-06
3.20479e-06
-4.56328e-06
1.07475e-07
1.0354e-05
1.00001e-05
6.6237e-06
1.48693e-06
-2.25245e-06
4.34203e-07
3.45569e-06
3.02241e-06
4.60511e-06
5.02937e-06
1.75682e-06
2.3285e-06
8.24171e-07
-1.16007e-06
-4.10724e-06
-6.05614e-06
-3.52928e-06
2.39734e-06
-1.02827e-06
-3.9995e-06
-1.5649e-07
1.83487e-06
3.58094e-06
7.48042e-06
7.25804e-07
-3.68436e-06
-2.16509e-06
-1.39186e-06
4.48512e-06
6.52735e-06
4.07628e-06
5.30682e-06
7.54494e-06
5.43326e-06
1.65577e-06
1.10376e-06
1.68904e-06
1.94225e-06
-3.74013e-07
4.99108e-07
4.30299e-06
7.91686e-06
-4.15009e-07
-1.19075e-06
1.96766e-06
9.50352e-06
1.25623e-05
6.54514e-06
1.07937e-06
-1.35279e-06
-1.82214e-07
1.55335e-06
1.04232e-06
-1.37532e-06
1.67264e-06
1.94092e-06
-5.51261e-06
-3.52494e-06
4.69476e-06
6.4946e-06
-8.87722e-07
-2.14917e-06
-2.95436e-07
-1.45423e-06
-2.6684e-06
-4.32817e-06
-2.20918e-06
3.99002e-06
7.97855e-06
4.47606e-06
-2.29165e-06
-5.79248e-06
-1.48431e-07
4.60836e-06
4.92592e-06
2.42793e-06
2.45359e-06
4.23508e-06
3.09974e-06
1.59138e-06
1.50126e-06
2.21892e-06
1.28369e-06
-9.57391e-07
-1.74943e-07
5.8544e-07
6.30486e-07
-4.15164e-06
1.83093e-06
3.02951e-06
-3.63398e-06
1.14919e-06
6.14951e-06
8.60209e-07
-2.18746e-06
1.67929e-07
-2.06881e-06
-5.6212e-06
-1.71323e-06
1.19526e-06
-2.61323e-06
-2.9158e-06
2.61864e-06
7.62333e-06
2.59963e-06
-5.43204e-07
1.93871e-06
4.52461e-06
-5.38029e-07
-8.06422e-06
-1.27203e-06
1.32429e-05
1.34302e-05
-9.9462e-07
-7.54683e-06
-4.23744e-06
-1.13052e-07
2.09503e-06
1.06553e-06
-5.79463e-07
1.11822e-06
4.73203e-06
5.60475e-06
3.8567e-06
1.7313e-06
1.35876e-06
5.74478e-07
4.87766e-07
-3.13284e-06
5.60004e-07
2.58756e-06
4.38899e-06
8.423e-07
-1.2858e-07
2.74591e-06
6.51078e-08
-2.32736e-06
-2.94533e-06
-2.93534e-07
-1.59429e-07
-4.67813e-06
-8.64407e-06
-1.78449e-06
-1.89418e-06
-3.06751e-06
-1.68919e-06
1.48346e-06
4.7914e-06
4.86947e-06
4.54765e-06
6.46639e-06
7.39096e-06
-1.2326e-07
-1.10957e-05
-2.57841e-06
-5.39214e-06
-5.73297e-06
-2.67606e-06
2.3261e-06
1.86105e-06
-5.93206e-06
-7.74019e-06
-6.05413e-06
-4.65681e-06
-7.60841e-07
1.04673e-06
2.15905e-06
1.20603e-06
-3.4254e-06
-3.5755e-06
-5.20585e-06
-6.02737e-06
-2.13196e-06
7.10466e-08
5.15553e-06
9.39136e-06
6.75751e-06
4.57175e-06
3.45339e-06
-2.86411e-06
-2.38653e-06
2.59632e-06
2.54617e-06
7.60114e-08
-3.32655e-07
2.34842e-06
4.2543e-07
-2.10748e-06
-7.0699e-07
-1.22549e-06
-2.70517e-06
8.38988e-07
2.10983e-06
2.34777e-06
1.01442e-06
-1.64068e-06
-1.97647e-06
5.03126e-06
7.89908e-06
1.87229e-06
-3.91832e-06
-7.42381e-07
8.14962e-07
-3.40013e-06
-5.52998e-07
1.21376e-07
-1.96053e-06
-7.88906e-07
-1.04702e-06
-2.56813e-06
-7.66781e-07
-2.82934e-06
-2.43657e-06
-1.82168e-06
-2.90887e-06
-3.34123e-06
-1.95744e-06
-1.91068e-06
2.13802e-06
3.35168e-06
1.6509e-06
1.10524e-06
-1.97376e-06
-1.94872e-06
-3.86411e-08
3.638e-06
6.81567e-06
3.0405e-06
-1.7853e-07
1.16147e-05
1.06666e-05
2.06739e-06
-1.86046e-06
-6.63459e-07
-1.21093e-06
-2.71776e-06
3.24138e-07
-2.33484e-06
-5.90791e-06
-4.0675e-06
8.03002e-07
3.49516e-06
2.16867e-06
1.1643e-06
2.11357e-06
1.43363e-06
1.41277e-06
2.83783e-06
1.78355e-06
-1.00772e-06
-8.51477e-07
7.83428e-07
-2.21195e-06
-3.6797e-06
-4.02355e-06
-3.5292e-06
-1.38256e-07
2.67983e-06
2.66945e-07
-1.28078e-06
-6.76658e-06
-9.22258e-07
4.94478e-06
5.49884e-06
1.49857e-06
-3.0132e-06
-2.78738e-06
5.41238e-06
1.11992e-05
1.1323e-05
5.53675e-06
2.02339e-06
-3.5085e-07
-1.88473e-06
-3.47672e-06
-1.92688e-06
6.31263e-07
-2.73102e-08
1.1505e-06
6.3265e-07
-1.4074e-06
-2.9898e-06
-2.01206e-07
4.64077e-07
-2.06924e-06
-4.13409e-06
-2.81749e-06
1.4841e-06
2.49053e-06
-6.16412e-07
2.18051e-06
6.16386e-06
4.37287e-06
4.34525e-06
6.2591e-06
1.69109e-06
-1.76442e-06
-4.1942e-07
-3.24519e-07
7.01096e-07
3.56685e-06
4.30378e-06
-5.27731e-06
-1.03041e-05
3.4793e-06
-2.09841e-07
-3.63035e-06
-6.12976e-06
3.68527e-08
4.34311e-06
3.93797e-06
-6.78941e-07
-6.55859e-06
-8.88766e-06
-5.13096e-06
-3.31524e-06
-1.94318e-06
1.88987e-06
-1.30104e-06
-4.11422e-09
2.63668e-06
-1.53557e-06
-1.95463e-06
9.89358e-07
1.66785e-06
-2.28457e-06
5.19819e-07
4.13649e-06
-1.08474e-06
-7.87368e-07
1.38497e-06
1.85076e-06
2.00115e-06
-1.71852e-06
-1.80671e-06
9.03524e-07
1.67892e-06
1.52624e-06
1.12303e-06
4.38796e-06
8.09356e-06
8.84509e-06
7.09658e-06
3.55862e-06
2.0777e-06
2.20032e-06
6.75684e-06
7.77946e-06
8.12727e-06
1.97608e-06
1.37581e-06
-2.61937e-06
-2.66598e-06
1.01424e-06
1.85778e-06
7.80162e-07
-9.64494e-07
-2.15107e-06
-1.28852e-07
-1.68393e-06
-1.68379e-06
2.22503e-06
5.66401e-06
5.19919e-06
2.7123e-06
-1.78573e-06
-1.73589e-06
1.99715e-06
3.74803e-06
1.47733e-06
-1.64784e-07
5.86727e-07
-6.68882e-07
2.71721e-06
2.80694e-06
-4.55901e-06
-2.8713e-06
3.02042e-06
3.6316e-07
-2.57729e-06
-5.22067e-07
-7.13155e-07
-2.79896e-06
-1.88887e-06
1.4872e-07
-2.97271e-07
-2.49309e-06
-9.70263e-07
3.90007e-06
5.25204e-06
6.70531e-06
1.40576e-05
5.29163e-06
6.64668e-06
3.68224e-06
-1.97819e-06
-5.19802e-06
-4.56595e-06
-5.54923e-06
-3.19791e-06
-3.32433e-06
-1.69947e-06
2.82292e-06
2.63615e-06
6.872e-06
9.89787e-06
8.99942e-06
8.09169e-07
5.45539e-07
-7.35837e-07
-2.87892e-06
-2.81278e-06
-1.90677e-06
8.53064e-07
-2.79488e-06
-2.79409e-06
-9.25869e-07
7.19856e-07
-6.06855e-06
-8.79096e-06
-6.61465e-06
1.69398e-06
3.02288e-06
-2.13071e-06
6.10959e-08
4.22243e-06
5.54921e-06
-7.84488e-07
-5.74812e-06
-5.94599e-06
-4.39716e-06
-1.30471e-06
2.34868e-06
4.31321e-06
4.83149e-06
5.57604e-06
-6.43016e-06
-1.537e-06
-4.92134e-07
5.3486e-06
9.61441e-06
7.97189e-06
7.99283e-06
7.22972e-06
7.88255e-06
4.25514e-06
2.54954e-06
1.30669e-06
-6.39184e-06
-7.12106e-06
-2.17858e-06
-1.67957e-06
-7.46109e-07
4.31271e-06
5.82629e-06
5.61116e-06
2.96598e-06
3.46946e-07
2.04023e-06
3.95794e-07
-2.15885e-06
-4.85906e-06
-8.90563e-06
-6.49411e-06
-7.39897e-06
-7.72659e-06
-4.81818e-06
-4.94742e-06
-1.86914e-06
1.2499e-06
9.08962e-07
1.97085e-07
4.83313e-06
5.45639e-06
2.54306e-06
1.7711e-06
1.53378e-06
-1.26384e-06
-6.76124e-06
-1.15232e-05
-5.07801e-06
-2.73587e-06
-1.5481e-06
4.01245e-07
5.08934e-07
1.98266e-07
2.76242e-06
4.50293e-06
6.78123e-06
9.65644e-06
6.98819e-06
3.72479e-06
-2.91797e-06
-7.97974e-06
-3.54948e-06
1.27936e-06
1.44486e-06
-9.51713e-07
3.04382e-07
3.94959e-06
4.32242e-06
2.43595e-06
4.14822e-06
7.90591e-06
7.12426e-06
3.62708e-06
4.72767e-06
8.5017e-06
6.72739e-06
4.10766e-06
-9.60663e-07
-6.61936e-06
-7.87891e-06
-4.56584e-06
-2.21879e-06
2.79342e-06
7.60027e-06
4.08604e-06
-1.56154e-06
-4.53333e-06
-4.24816e-06
-1.3729e-06
-3.8403e-06
-6.30897e-06
-1.42764e-06
-2.45857e-06
-2.77028e-06
1.32597e-06
4.267e-06
6.39152e-06
1.51867e-05
1.70197e-05
8.02177e-06
8.42822e-07
-3.21622e-06
-3.5443e-06
-1.85867e-06
-4.82735e-06
-8.72678e-06
-4.77769e-06
9.10138e-08
-2.93567e-06
-1.03224e-06
2.48741e-06
1.37537e-06
1.31367e-06
1.36485e-06
5.1607e-07
3.16893e-06
3.43643e-06
-6.18494e-07
2.49606e-06
8.23261e-06
8.33666e-06
6.09896e-06
5.96567e-06
5.38522e-06
1.28469e-06
-2.85828e-06
-3.57062e-06
-6.79333e-06
-8.35244e-06
-4.31013e-06
-1.93132e-06
-2.95814e-07
3.12827e-06
4.14887e-06
1.31286e-06
2.23418e-06
-1.27703e-06
-6.81689e-06
-5.2058e-06
-3.02593e-06
-2.83115e-06
-3.95847e-06
-9.50479e-06
-1.00417e-05
-2.08098e-06
3.49869e-06
4.85547e-06
3.93401e-06
1.52735e-06
-6.12099e-07
-5.01686e-06
-4.23819e-06
-2.72715e-06
-5.15608e-07
-7.18104e-09
-1.21037e-06
9.57947e-07
2.47557e-06
1.36028e-06
2.3736e-06
2.26578e-06
5.18492e-07
2.0732e-06
4.50573e-06
9.6946e-07
-5.078e-07
4.23493e-06
9.15879e-06
4.6617e-06
2.87007e-07
-1.62224e-06
1.62208e-06
2.88114e-06
2.9882e-06
4.12467e-06
3.04363e-06
3.88815e-07
1.31593e-07
2.00449e-06
4.06903e-07
3.87773e-06
9.56837e-06
8.23756e-06
4.30167e-06
1.68183e-06
-1.58175e-06
-2.6796e-06
-3.44766e-06
-1.52625e-06
9.13631e-07
2.39501e-06
1.20868e-06
-1.69137e-07
6.96024e-07
2.90618e-06
1.82319e-06
-1.49462e-06
-3.7245e-06
-5.27854e-06
-3.92168e-06
-1.12655e-06
7.84436e-07
2.57381e-06
2.93979e-06
7.7922e-07
2.54736e-06
4.60779e-06
2.81678e-06
3.2386e-07
-2.05925e-07
2.41015e-06
7.76429e-06
1.18638e-06
-3.52225e-06
-1.81917e-06
3.22212e-06
1.66194e-06
1.87635e-06
4.28286e-06
2.79551e-06
-2.63825e-06
-5.78407e-06
-3.328e-06
-5.55925e-06
-4.94424e-06
1.72781e-07
2.81373e-06
6.83131e-06
8.44774e-06
1.83788e-06
-1.11113e-06
2.99725e-06
-6.09502e-07
-5.42428e-06
-1.89784e-06
3.87604e-06
7.35322e-06
5.74581e-06
6.37204e-06
1.68053e-06
4.30242e-07
-8.55667e-07
-3.49968e-06
-3.90752e-06
-4.74426e-06
-2.1926e-06
7.94539e-07
1.28311e-06
2.94646e-07
3.37486e-06
4.15116e-06
7.50289e-08
-3.86641e-07
3.96144e-07
-1.14146e-06
-1.64146e-06
-2.82194e-06
8.85401e-07
-2.80936e-06
-2.16656e-06
-3.84699e-06
9.76225e-07
3.18765e-06
-1.63531e-06
-7.11909e-06
-5.98979e-06
-5.28317e-06
-6.16709e-06
-6.98227e-06
1.22149e-06
1.07234e-05
1.35065e-05
1.11648e-05
4.02058e-07
-2.66324e-07
2.91443e-07
-3.69862e-06
-2.62741e-06
1.21492e-06
3.11902e-06
2.01373e-06
7.73226e-07
-1.9931e-06
6.6699e-07
1.24868e-06
1.3215e-06
5.23741e-06
5.68132e-06
3.61461e-06
4.9201e-06
4.28027e-06
2.24604e-06
6.8049e-06
4.15847e-06
-3.67877e-06
5.97854e-08
2.0922e-07
-2.79153e-06
-3.08901e-06
-4.2694e-06
-1.31998e-06
6.5969e-06
5.41761e-06
6.35199e-07
4.93582e-07
-5.06639e-08
1.62271e-06
6.43567e-06
1.03226e-05
1.02486e-05
2.18537e-06
8.49828e-06
6.13499e-06
-1.02395e-06
-6.36579e-06
-9.24535e-06
-9.48067e-06
-1.02261e-06
2.29459e-06
-5.20814e-07
2.26974e-06
4.16922e-06
-1.94752e-06
-5.24562e-06
-1.33446e-06
2.46841e-06
-3.76719e-06
-5.07724e-06
-3.72179e-06
-2.10455e-06
-3.49055e-07
-2.58325e-07
-2.02937e-06
-1.18915e-06
8.28095e-07
1.60349e-07
2.50597e-06
4.3614e-06
2.00975e-07
-6.95902e-07
4.35144e-07
-5.85477e-07
-4.03348e-07
-4.95031e-07
-9.82689e-07
-5.13817e-07
3.9211e-07
9.33635e-07
7.63889e-07
6.00836e-07
4.07554e-07
5.91624e-07
3.25155e-06
7.21347e-06
8.7669e-06
7.52712e-06
1.05562e-06
5.9933e-07
-2.89573e-07
-1.89474e-06
-8.38548e-07
-5.64945e-07
8.33801e-07
3.65751e-06
5.12685e-06
2.31067e-06
-5.34603e-07
3.08244e-06
3.51487e-06
-6.21195e-06
4.88069e-06
3.24034e-06
-4.84876e-06
-4.91234e-06
-2.98848e-06
-1.23361e-06
-1.81555e-06
-4.03263e-06
-1.39233e-06
2.74221e-06
3.20238e-07
-2.28775e-06
-2.05136e-06
2.59171e-07
3.10743e-07
-1.95745e-06
-2.19854e-06
-6.13274e-07
-2.66339e-06
-5.71759e-06
-2.4048e-06
-9.08425e-07
6.03582e-07
5.58641e-06
5.0841e-06
9.55304e-07
2.14993e-06
5.68011e-06
9.76485e-06
-4.07332e-06
-4.32399e-06
-2.20592e-06
1.40763e-06
8.92122e-07
3.07761e-07
2.36387e-06
7.9807e-06
8.63534e-06
4.92057e-06
1.33437e-06
4.53379e-08
-1.45581e-07
-4.91005e-06
-5.70948e-06
1.10375e-05
1.93135e-05
1.5969e-05
9.11012e-06
4.27637e-06
-1.35983e-06
-6.12577e-07
7.06659e-07
-2.23611e-06
2.6224e-06
2.09574e-06
-1.24477e-06
4.02826e-07
2.33565e-06
-4.06186e-07
1.7447e-06
1.9859e-06
-8.67915e-09
-1.08806e-06
-4.43735e-06
-3.77784e-06
-1.26565e-06
2.50267e-06
7.12416e-06
8.32473e-07
-2.42223e-06
1.68231e-06
6.08348e-06
3.8204e-06
-9.67406e-08
5.59045e-07
-3.84505e-06
1.64488e-06
1.09041e-05
4.38522e-06
-3.89079e-06
-3.11391e-06
-1.54871e-06
-6.19258e-07
3.2898e-06
1.21375e-06
-9.75232e-06
-1.02329e-05
-6.8983e-06
2.2393e-06
6.67062e-06
1.08265e-05
9.7158e-06
4.21567e-06
-5.01925e-07
1.75576e-06
5.62473e-06
-2.54605e-06
-4.6832e-06
-5.52901e-07
7.04209e-06
1.12829e-06
-9.96736e-06
-8.71432e-06
-7.07765e-07
2.50554e-07
-6.15381e-07
4.0861e-06
9.01124e-06
4.72319e-06
3.8599e-06
2.22185e-06
-3.87399e-06
-4.2038e-06
3.58272e-06
5.54267e-06
-2.5493e-06
-5.78131e-06
9.58674e-07
3.629e-06
3.93845e-06
-3.22111e-07
2.04966e-07
9.79435e-07
1.69711e-06
-4.22909e-06
-3.26475e-06
-1.64027e-06
3.85741e-07
-6.51095e-07
-2.29277e-06
-7.45908e-06
4.24805e-06
2.92049e-06
2.75223e-06
-1.87403e-06
-3.17227e-06
7.16859e-07
3.10441e-06
2.41951e-06
6.47907e-06
7.57313e-06
6.79101e-07
-1.00211e-05
-4.77975e-06
6.99201e-07
2.9665e-06
-1.5714e-06
-1.42016e-06
-1.0263e-06
4.57799e-06
1.03453e-05
8.90832e-06
3.42564e-06
9.55326e-06
-1.19197e-06
-1.211e-05
-3.75507e-06
-7.9693e-07
-1.76778e-06
-8.01671e-06
-2.71021e-06
-5.12368e-06
-3.5401e-07
-1.23906e-06
-4.11942e-06
-6.44652e-06
-3.47486e-06
1.75851e-06
3.09754e-07
-2.7115e-08
2.19079e-06
1.16702e-06
-1.33368e-06
1.85672e-06
6.47459e-06
1.79389e-06
-4.54797e-07
2.35565e-06
2.33409e-06
-1.01868e-06
2.27251e-06
4.29365e-06
-5.95393e-06
-5.10845e-06
5.18217e-06
1.1406e-05
2.87403e-06
-4.02175e-06
-9.62033e-07
3.87592e-06
7.81721e-06
7.22347e-06
1.87867e-06
-5.44556e-07
-1.12556e-05
-1.10456e-05
-1.36502e-06
-9.29137e-07
3.74858e-06
7.269e-06
8.33923e-06
2.29215e-06
-4.76951e-06
2.27695e-06
1.44903e-06
2.78307e-06
-1.15044e-05
-9.18634e-06
-4.49462e-07
-1.6426e-06
-3.54568e-06
3.85173e-06
4.06042e-06
-4.07879e-06
-2.87067e-06
3.97376e-07
-6.16002e-06
-7.70809e-06
-2.68297e-06
3.94919e-06
2.8145e-06
2.98005e-07
1.51184e-06
3.59628e-06
3.84187e-06
6.27272e-07
-3.41442e-06
8.57805e-08
5.78835e-06
2.90345e-07
-2.64506e-07
3.77496e-06
3.11677e-06
4.63038e-06
6.38974e-06
1.77271e-06
3.4063e-07
-1.40966e-06
-5.39029e-06
-5.86531e-06
6.24058e-07
2.73434e-06
4.2081e-06
9.46368e-06
1.016e-05
2.53667e-06
-4.09706e-06
-9.37648e-07
4.85206e-06
8.81625e-06
8.68662e-06
4.15878e-06
5.62238e-06
5.80833e-07
-2.26024e-06
-1.0007e-06
-1.89621e-06
5.28515e-06
4.16957e-06
-6.27673e-07
-3.52415e-06
-2.03527e-07
-5.28739e-06
-4.54967e-07
7.29421e-06
2.11806e-06
1.15766e-06
4.89285e-06
5.2343e-06
-8.60986e-07
3.15145e-06
1.11416e-05
9.51774e-06
-4.11024e-06
4.31906e-07
5.96985e-06
4.12814e-06
5.02246e-06
1.39935e-06
-2.99596e-06
-4.72026e-06
-3.78037e-06
-4.15795e-06
9.32375e-07
6.31798e-06
8.09817e-06
5.75174e-06
-1.60881e-07
-2.40082e-06
-4.23333e-07
-4.73854e-06
-5.55404e-06
2.561e-06
2.10047e-06
5.45745e-06
9.77555e-06
7.04634e-06
3.10791e-06
3.43556e-06
-4.03222e-06
-9.40763e-06
-7.25569e-07
5.0096e-06
-2.42962e-06
-4.6306e-06
3.43506e-06
6.5696e-06
2.17548e-06
-8.5868e-08
3.44631e-06
1.51105e-06
-1.38091e-07
1.77852e-07
2.29086e-06
5.34548e-07
-9.37188e-06
-6.23992e-06
4.01051e-06
4.37643e-06
-6.92901e-07
-4.88247e-06
-6.65047e-06
-8.77068e-06
-4.80155e-06
-1.62906e-06
2.81124e-06
9.64345e-06
1.07879e-05
4.64012e-06
2.96864e-06
-3.04988e-06
-9.46775e-06
-4.18424e-06
1.62206e-06
-1.1272e-06
-6.07786e-06
-1.69575e-06
6.83962e-06
8.6227e-06
2.23219e-06
-3.66305e-06
3.7462e-07
-1.45912e-06
-3.88743e-06
-1.01485e-05
-2.82678e-06
-2.05865e-06
-6.32969e-06
6.82717e-07
9.80645e-06
6.93992e-06
-4.71054e-06
-8.06983e-06
-5.92208e-07
4.86846e-06
-6.81934e-08
-4.31743e-06
-8.4933e-07
-4.3509e-06
-1.03245e-05
-4.78881e-06
5.56553e-06
1.25426e-05
1.06093e-05
6.76415e-06
1.47024e-06
3.21512e-08
6.7396e-06
8.13174e-06
5.73003e-06
1.21532e-06
-1.50215e-07
-1.15356e-06
-3.53621e-06
-7.8683e-06
-4.93587e-06
2.05752e-06
5.14893e-06
3.26115e-07
-6.59802e-06
1.2423e-06
-4.40027e-06
-6.41236e-06
-6.34976e-06
6.46853e-07
1.24025e-06
-6.80035e-07
3.75018e-06
8.45844e-06
4.40258e-06
9.70102e-07
-3.76335e-08
1.09242e-06
2.26675e-06
3.21062e-06
-1.09281e-06
-2.4141e-06
2.72641e-06
2.11779e-06
-1.2192e-06
-1.16295e-06
-4.47759e-06
-6.97979e-06
-4.63531e-06
1.84359e-06
7.37741e-06
4.88653e-06
6.28362e-07
4.01537e-06
7.66938e-06
9.83847e-06
8.88944e-06
4.03153e-06
-1.52106e-06
-6.46397e-06
-7.86791e-06
-4.32209e-06
-2.37985e-06
-5.17563e-07
1.39821e-06
-7.08502e-07
-1.50866e-06
2.23147e-06
3.39567e-06
-3.12261e-06
5.94047e-08
-1.86059e-06
-3.33973e-06
-4.64393e-07
6.42561e-07
8.82727e-07
4.36989e-06
5.12794e-06
2.64153e-07
1.53631e-06
4.74641e-06
-2.0583e-06
-3.04383e-06
4.95816e-09
7.69441e-07
-3.15661e-06
-5.09158e-06
-8.90179e-07
2.30699e-06
2.37048e-06
-2.82861e-06
-3.14208e-06
9.06077e-07
-2.51469e-06
-5.26664e-06
-7.20851e-06
-3.43684e-06
3.5697e-06
6.62115e-06
2.50358e-06
-2.76903e-06
-3.71608e-06
-4.44165e-06
-4.83992e-06
-3.18179e-06
-1.04365e-06
5.37793e-06
4.62952e-06
-2.1659e-06
-7.03983e-07
-1.31899e-06
2.03933e-06
4.69164e-06
4.86485e-07
6.69674e-07
-8.87643e-07
8.20645e-08
9.39979e-07
1.87064e-07
1.64662e-06
3.86782e-06
1.86068e-06
-2.42234e-06
2.16791e-07
5.24998e-06
-8.25036e-07
-6.42242e-06
-8.64649e-06
-6.4701e-06
-5.08275e-06
-7.14092e-06
-1.8278e-06
3.29151e-06
1.559e-06
2.79441e-06
6.50706e-06
4.66565e-07
-3.6695e-06
-1.03016e-06
9.72054e-07
-5.89238e-07
-4.63711e-07
-1.60601e-06
-5.3028e-06
-6.07824e-06
-4.55048e-06
6.82338e-07
-2.02714e-06
-1.62435e-06
1.17114e-06
3.79846e-06
4.82236e-06
-3.19304e-07
4.58797e-07
4.67045e-07
1.67406e-06
1.72443e-06
1.04547e-06
-1.28995e-06
1.81054e-08
3.61382e-06
3.92745e-06
8.32209e-07
2.20285e-07
4.15045e-07
-8.81969e-07
8.34265e-07
2.71924e-06
6.52481e-07
-3.19304e-06
-2.19787e-06
1.55992e-06
1.04952e-06
-1.41675e-07
3.92273e-07
2.51853e-06
4.06294e-06
-1.59309e-06
-3.59202e-06
-3.73507e-06
-1.4683e-06
4.79943e-06
9.85036e-06
8.0764e-06
1.61019e-06
-9.67062e-07
-1.40683e-06
-3.46968e-06
-5.91626e-06
-4.79702e-06
1.50395e-08
-1.52708e-06
-1.22458e-06
4.43473e-06
5.85465e-06
4.21756e-06
2.61627e-06
7.60696e-07
3.16075e-06
-1.38292e-06
-4.76565e-06
-6.5092e-07
-5.74428e-07
1.94492e-06
6.6998e-06
8.58599e-06
6.10324e-06
3.35213e-06
-2.18369e-06
-3.16965e-06
4.21439e-07
-9.2817e-07
-2.85143e-06
-4.47813e-06
-2.55006e-06
3.66636e-06
4.52808e-06
2.2279e-06
1.27047e-05
4.13476e-06
-3.40851e-06
-8.56777e-07
-1.06227e-06
-2.22487e-06
5.7466e-07
-1.81078e-06
-1.85807e-06
-4.58655e-07
-3.29904e-07
-1.15773e-06
-1.41584e-06
-4.4503e-07
-5.59859e-07
-4.17815e-07
7.85617e-07
-1.35329e-06
5.17629e-07
4.37472e-06
-2.32029e-07
4.21738e-07
-3.89912e-06
-4.85557e-06
-2.0861e-07
-4.36341e-06
-3.92954e-06
1.24137e-07
4.89693e-07
2.69223e-06
3.51866e-06
3.57632e-06
1.78803e-06
1.55021e-06
2.11035e-06
1.46939e-06
-2.46804e-06
-3.41818e-06
-3.35417e-06
-4.50529e-06
-1.1849e-06
8.3327e-07
-9.9568e-07
-6.56137e-06
-3.87703e-06
-6.4375e-06
-6.31754e-06
-7.2043e-07
3.31899e-06
4.58675e-06
3.04921e-06
6.61408e-07
1.34712e-07
-2.846e-06
-6.16033e-06
-3.81056e-06
-2.28827e-06
4.88961e-07
6.51207e-06
7.68009e-06
4.54105e-06
3.95786e-06
2.95426e-06
9.34642e-07
-3.16272e-07
-5.19018e-06
-6.88271e-06
-3.7818e-06
-1.26464e-06
7.03863e-07
4.32815e-06
1.03608e-06
-1.76698e-08
-4.52084e-06
-2.59076e-06
-4.97223e-06
-5.6227e-06
-6.1986e-06
-4.59007e-06
4.02141e-07
4.19228e-06
5.06722e-06
-6.15316e-07
-3.08898e-06
-2.77947e-06
-1.94869e-06
2.20776e-06
1.36842e-06
-3.18937e-06
-1.62432e-06
3.03586e-06
7.17467e-07
-1.9048e-06
-2.32702e-06
-2.94453e-06
9.83985e-07
2.21345e-06
1.49798e-06
4.79576e-07
3.72857e-08
1.70379e-07
2.83297e-07
2.83167e-06
3.47869e-06
9.83343e-07
-1.51239e-07
5.96811e-07
3.11327e-06
6.02604e-06
4.03948e-06
4.63905e-06
8.06304e-06
3.86888e-06
-1.41718e-08
1.22603e-06
5.58404e-06
8.71752e-06
-1.14787e-07
-6.17598e-06
6.82977e-06
2.022e-05
1.04641e-05
-7.11777e-06
-2.03077e-07
2.58875e-05
3.13649e-05
2.22827e-05
9.16977e-06
-6.89242e-07
-1.10837e-05
-3.25058e-06
5.28657e-06
1.5481e-05
2.37627e-05
2.2842e-05
8.99718e-07
-1.74098e-05
-7.3905e-06
-1.44067e-06
-3.83621e-07
1.06991e-06
1.32565e-05
3.92842e-05
2.42751e-05
5.21319e-07
6.48849e-06
9.55646e-06
5.20836e-07
-3.45451e-06
-9.55233e-06
-1.36403e-05
-3.92925e-07
1.61355e-05
2.00149e-05
1.06693e-05
8.24231e-06
-9.08819e-06
-3.16447e-05
-4.00329e-05
-2.22942e-06
-2.00629e-05
1.01527e-05
2.81043e-06
-8.22643e-06
4.75923e-06
9.4515e-06
7.20329e-06
4.77995e-06
1.1065e-05
2.03601e-05
4.47696e-05
7.25735e-05
3.39555e-05
-1.2448e-05
-1.44398e-05
-1.27087e-05
-3.35902e-06
1.0986e-05
1.19724e-05
-1.59291e-05
-2.40567e-05
-1.02447e-05
1.03477e-05
5.86538e-06
-2.54905e-07
1.12902e-06
-5.13535e-06
-1.36028e-05
-1.49065e-05
-1.47233e-05
-1.3365e-05
-9.47973e-06
4.58714e-06
5.23183e-06
-2.35309e-06
4.39612e-06
4.15359e-06
-5.42486e-06
-1.96313e-05
-2.25214e-05
-5.16059e-06
2.28951e-05
3.44697e-06
-3.87113e-05
-6.9269e-06
2.04433e-06
4.23388e-06
-1.09082e-05
1.75959e-06
2.38568e-05
2.84656e-05
1.14661e-05
5.61164e-06
1.44086e-05
2.48176e-06
-1.38071e-05
-1.9356e-05
1.20267e-05
2.17148e-05
1.77088e-05
7.2735e-06
-1.53852e-05
-2.00796e-05
1.34005e-05
2.92048e-05
5.44206e-06
-8.28363e-06
1.60603e-06
8.23737e-06
-1.54542e-06
-2.17154e-05
-1.43371e-05
1.51185e-06
-4.52381e-07
-2.68665e-06
-7.16592e-06
-2.41434e-06
5.96552e-06
9.07825e-07
-1.72391e-05
-2.88342e-05
-1.11705e-05
1.59726e-06
-1.0894e-05
-4.36524e-07
1.44119e-05
2.80699e-05
1.63745e-05
2.96238e-05
1.80304e-05
1.22171e-05
1.78172e-06
-1.53964e-05
-2.43547e-05
-1.01076e-05
-6.37565e-06
-4.29642e-06
3.33478e-06
-2.83684e-05
-3.84772e-05
-2.33665e-05
-1.31391e-06
9.78669e-06
1.459e-05
1.07565e-05
2.03307e-06
1.55354e-06
1.4711e-05
1.05918e-05
-7.76274e-06
-7.02953e-06
5.25178e-06
1.471e-05
1.7882e-05
2.02262e-05
2.01635e-05
1.02397e-05
6.64919e-07
-1.82173e-06
2.81588e-06
-1.32275e-06
-1.44874e-05
-4.60594e-06
5.67258e-06
-1.84972e-06
-3.47674e-06
1.49966e-05
2.05844e-05
-6.54094e-06
-1.37037e-05
5.48846e-06
2.49947e-05
2.59929e-05
1.74414e-05
1.59099e-06
-2.97304e-06
-2.74751e-06
-1.30115e-06
1.49014e-08
6.68216e-06
2.70789e-05
3.08967e-05
1.2794e-05
1.04576e-06
3.5734e-06
8.71127e-06
1.39781e-05
9.31061e-06
3.55512e-06
6.46912e-06
1.26029e-05
3.99852e-06
-8.69454e-06
-3.15293e-06
1.16985e-05
1.35617e-05
5.58959e-06
-1.77952e-07
-3.67255e-06
7.88867e-06
1.75134e-05
7.20894e-06
-4.84832e-06
-3.36742e-06
3.73991e-06
4.74712e-06
7.22402e-06
9.21374e-06
1.95074e-06
1.28054e-06
1.12621e-05
1.07848e-05
4.26315e-06
-6.01681e-06
6.41295e-06
2.27577e-05
-8.81528e-06
-3.30416e-06
-1.22625e-05
-8.69706e-06
1.68869e-06
7.21546e-06
3.49939e-06
4.35916e-06
9.51799e-06
1.40242e-05
1.90221e-05
1.93756e-05
2.16523e-05
1.68548e-05
4.0182e-06
-4.06273e-07
-2.72544e-06
-3.64434e-06
1.42906e-06
-1.78713e-06
-7.83895e-07
7.87758e-06
1.68448e-05
1.52222e-05
1.1143e-06
-1.16776e-05
-1.11936e-05
3.94134e-06
9.46911e-06
3.52288e-06
-2.71607e-06
-2.58204e-06
-2.42303e-06
-3.77955e-07
-4.78826e-06
-5.5107e-06
6.69813e-06
6.00668e-06
-4.6024e-06
-3.30952e-06
1.65157e-05
3.36932e-05
6.59413e-06
-2.09385e-05
-2.23477e-05
-2.79929e-05
-1.45369e-05
-2.40321e-06
6.0147e-06
8.65435e-06
1.46557e-06
-2.93738e-06
3.71609e-06
1.35247e-05
2.58974e-05
3.03342e-05
1.37859e-05
-8.81089e-07
-3.0473e-07
-1.08651e-07
-9.04483e-06
-7.54922e-06
2.57615e-06
6.81112e-06
1.6355e-05
1.4548e-05
-4.95393e-06
-7.95317e-06
8.09491e-07
8.79319e-06
4.77099e-06
-3.06026e-06
-1.3163e-05
-1.95785e-05
-9.8513e-06
-2.08855e-06
-6.07344e-06
-2.15762e-05
-2.36435e-05
-8.53195e-06
1.25393e-05
9.79333e-06
4.35779e-07
6.62092e-06
1.55282e-05
1.15235e-05
2.51116e-08
-7.40825e-06
-1.23875e-05
-3.491e-06
-3.32819e-06
-6.02644e-06
1.22476e-05
1.72606e-05
4.23638e-06
3.21283e-06
1.55941e-06
-4.5076e-06
-8.25665e-07
2.65226e-06
-5.62204e-06
-1.62909e-05
-1.82348e-05
-1.55381e-05
-1.24308e-05
-4.14513e-06
-3.52174e-06
-3.62599e-06
-1.97754e-06
2.07309e-07
-2.33805e-06
-1.34038e-05
-1.15339e-05
-6.31688e-06
-3.395e-06
3.20481e-06
6.94173e-06
-2.02103e-06
-6.94394e-06
-1.09481e-05
-3.52796e-06
2.7173e-05
4.33823e-05
2.65662e-05
9.58456e-06
-8.36275e-07
-5.44418e-06
-4.99243e-06
-7.3661e-06
-1.76896e-05
-9.61781e-06
-3.75577e-06
-4.73384e-06
4.79305e-06
1.76822e-05
2.49898e-05
1.04994e-05
-1.11348e-05
-1.58365e-05
-1.73164e-05
-5.09728e-08
1.12441e-05
-1.14477e-05
-2.23393e-05
-7.60748e-06
-4.54685e-07
-2.19894e-06
-5.98519e-06
1.60335e-07
4.87377e-06
-1.38493e-06
-3.79896e-06
-1.37215e-05
-1.69084e-05
-1.17378e-05
-5.80711e-06
-5.64017e-06
-3.45833e-06
6.58284e-06
7.92327e-06
4.52852e-06
1.44882e-05
3.10371e-05
1.03681e-05
-1.10695e-06
3.22311e-05
3.33115e-05
1.67347e-06
-1.26907e-05
-8.89706e-06
-6.4287e-06
5.01338e-06
8.54895e-06
-3.00439e-06
-2.77885e-06
-6.66616e-07
-1.89779e-05
-9.18107e-06
-7.56564e-06
-1.83518e-05
-2.06188e-05
-2.25766e-05
-9.33108e-06
-8.14814e-06
-3.97608e-06
8.56857e-06
1.40303e-05
6.52891e-06
4.08148e-06
1.06239e-06
2.07261e-06
1.44401e-05
3.1513e-05
3.0758e-05
7.42338e-06
-1.35307e-05
-2.42481e-06
-5.83994e-06
-1.24919e-05
3.37257e-06
9.52264e-06
6.48774e-06
-2.60873e-06
-2.03719e-05
-2.16296e-05
3.14894e-06
1.24378e-05
1.94939e-05
1.99261e-05
-2.80995e-06
-2.02772e-05
-1.12868e-05
-1.09892e-05
-8.56565e-06
-7.00187e-06
-1.12727e-05