/*--------------------------------*- C++ -*----------------------------------*\
  =========                 |
  \\      /  F ield         | OpenFOAM: The Open Source CFD Toolbox
   \\    /   O peration     | Website:  https://openfoam.org
    \\  /    A nd           | Version:  6
     \\/     M anipulation  |
\*---------------------------------------------------------------------------*/
FoamFile
{
    version     2.0;
    format      ascii;
    class       volScalarField;
    location    "0";
    object      k.air;
}
// * * * * * * * * * * * * * * * * * * * * * * * * * * * * * * * * * * * * * //

dimensions      [0 2 -2 0 0 0 0];

internalField   nonuniform List<scalar> 
125840
(
0.000386858
0.000692578
0.00083157
0.000973424
0.00114115
0.00101376
0.00100453
0.00132935
0.00125603
0.00088332
0.000935946
0.0012519
0.00124537
0.00150927
0.00144726
0.00115227
0.000924585
0.000770209
0.00077668
0.00085514
0.000926242
0.000825709
0.00102597
0.00162449
0.00168183
0.0012903
0.000794241
0.00077191
0.00108312
0.00135262
0.00140478
0.00114423
0.000901711
0.000945046
0.00132854
0.00122433
0.000655605
0.000371309
0.000347397
0.0005057
0.000401852
0.000206644
0.000206613
0.00027776
0.000834908
0.00132514
0.00170789
0.00273035
0.00424288
0.00375008
0.00341079
0.00350895
0.00365385
0.00196688
0.000455264
0.000366546
0.00040537
0.000273875
0.000284951
0.000321358
0.000236788
0.000218602
0.000258659
0.000262058
0.000291324
0.000188224
0.000175379
0.00026904
0.000351579
0.000343791
0.000385031
0.000433908
0.000614711
0.000801246
0.00104874
0.00134481
0.00114455
0.00077583
0.00091061
0.00116773
0.000891455
0.000491622
0.000672835
0.00106852
0.00071917
0.000514397
0.000549891
0.00057325
0.00123245
0.00130735
0.00120211
0.0012028
0.00093147
0.000490892
0.000563063
0.000843309
0.000752603
0.0004523
0.000459963
0.000720102
0.000522957
0.000409568
0.000540515
0.000587425
0.000462429
0.00037422
0.000325511
0.000325642
0.000365723
0.000295366
0.000246903
0.000360118
0.000518742
0.000473484
0.000498165
0.000607314
0.000424371
0.000367497
0.000402653
0.000370446
0.000308753
0.000329235
0.000450252
0.000526499
0.000592376
0.000760582
0.000965022
0.00122986
0.00154117
0.00139631
0.00125931
0.00120065
0.000739196
0.000384171
0.000273643
0.000235974
0.000199046
0.000161802
0.000238884
0.000350254
0.000466732
0.000459407
0.000516597
0.000955909
0.00142599
0.00168907
0.00162624
0.00146636
0.00159983
0.00139115
0.00123721
0.00129092
0.0014528
0.00172777
0.00205272
0.00252583
0.00231636
0.00113001
0.000516303
0.000421183
0.00038474
0.000459482
0.000460617
0.000455578
0.000603114
0.0010186
0.00166153
0.00169
0.00147305
0.00229025
0.00252924
0.00140584
0.0011303
0.0024621
0.00349282
0.00196048
0.00031527
0.000362413
0.000519744
0.000535458
0.000584768
0.000851275
0.00109884
0.00105624
0.00101611
0.00102083
0.00111383
0.00141537
0.00139977
0.00112528
0.00120079
0.0013056
0.00133495
0.00137111
0.00124984
0.00108406
0.00144258
0.00208692
0.00194351
0.001915
0.00236082
0.00206249
0.00206606
0.00169679
0.00105961
0.00130746
0.0018302
0.00188647
0.00167797
0.0015416
0.00181247
0.00217414
0.00215262
0.00229024
0.00256591
0.00181081
0.00092146
0.000729622
0.000721949
0.00051556
0.00043064
0.000664049
0.000897943
0.00111294
0.00140895
0.00151066
0.00143067
0.0015166
0.00166676
0.00148086
0.00150237
0.00138877
0.000893162
0.00067281
0.000757123
0.000843793
0.000895327
0.00109212
0.00113889
0.00101894
0.00111762
0.000980721
0.000698908
0.000688628
0.000900242
0.00102469
0.00127166
0.00132548
0.00116626
0.000974262
0.000992674
0.00113503
0.00148342
0.00164856
0.00148948
0.00177723
0.00195142
0.00162709
0.00209344
0.00246632
0.00148379
0.000705345
0.000606435
0.000463974
0.000586101
0.000644784
0.0010516
0.00146728
0.00172121
0.00170449
0.00155268
0.00143744
0.00128037
0.0011397
0.000973595
0.000772985
0.000679523
0.000692394
0.000740481
0.000847415
0.000822276
0.000607027
0.00049859
0.00053906
0.000486172
0.000415639
0.000308259
0.000354519
0.00050121
0.000496596
0.000464088
0.000516731
0.000472334
0.000464331
0.000588162
0.000590184
0.000504707
0.000569401
0.000910225
0.00131771
0.00119939
0.000946163
0.000932825
0.000904834
0.000677961
0.000496654
0.000572677
0.000671312
0.000551892
0.000734576
0.000912541
0.000962278
0.000686794
0.000569447
0.000399612
0.000219715
0.000167821
0.000194383
0.000315193
0.000405929
0.000410852
0.000410601
0.000429655
0.00064548
0.000727296
0.000585024
0.000611038
0.000504092
0.000479277
0.000974955
0.00104612
0.00097327
0.0015398
0.00202317
0.00204466
0.00168472
0.00106546
0.000868841
0.00117191
0.00115898
0.000615927
0.000305517
0.000477363
0.000568806
0.000447924
0.000358423
0.000322363
0.000325981
0.000344273
0.000393862
0.000541719
0.000549839
0.000682815
0.000740297
0.000487006
0.000332483
0.000411004
0.000498452
0.000487027
0.000468298
0.000438876
0.000391206
0.000374744
0.000445695
0.000582632
0.000641497
0.000601453
0.00057503
0.000489009
0.000441194
0.000535214
0.000428262
0.000522134
0.00096267
0.00101811
0.0010957
0.00151903
0.00169022
0.00163784
0.0014415
0.00101227
0.000451936
0.000333735
0.000304609
0.000142596
0.000212069
0.000337425
0.000347621
0.000362751
0.000399273
0.000339146
0.000299114
0.000403246
0.000512072
0.000572
0.000580036
0.000253011
0.000255815
0.000319466
0.000329841
0.000346148
0.000786497
0.00125086
0.00157913
0.00208243
0.00180609
0.00112564
0.000922775
0.00109424
0.00116145
0.00101872
0.000617195
0.000329013
0.00029117
0.000295728
0.00018323
0.000201229
0.00030715
0.000217615
0.000197899
0.000340713
0.000363271
0.000296613
0.000250599
0.000254164
0.000327285
0.000406761
0.000378001
0.000262457
0.000157198
0.000237185
0.000334739
0.000371841
0.000441878
0.000409781
0.000344082
0.000390571
0.000382196
0.000302265
0.000257131
0.000780143
0.000900813
0.00129103
0.00174212
0.00131616
0.00117175
0.00126358
0.00108264
0.00122885
0.00140956
0.00112921
0.000782118
0.000564203
0.000353555
0.000323513
0.000346998
0.000321986
0.000354085
0.000317752
0.00029708
0.000340634
0.000474251
0.000469252
0.000533833
0.000654612
0.000735367
0.000728244
0.000756777
0.00107035
0.00216088
0.00243015
0.00269569
0.00299337
0.00235074
0.00190403
0.00158642
0.00105771
0.000792546
0.000696065
0.000569262
0.000557612
0.000656464
0.000656571
0.000614643
0.00129708
0.00135144
0.00233395
0.00529135
0.0047079
0.00183841
0.00098535
0.000620451
0.000592904
0.000646849
0.00056142
0.000394945
0.000354877
0.000333245
0.00034503
0.000340787
0.000447254
0.000605222
0.000436858
0.000511638
0.000713395
0.000916673
0.00101091
0.00131582
0.00224874
0.00379851
0.00490513
0.00348167
0.00175459
0.00123536
0.00122977
0.00238802
0.00470573
0.00415436
0.00275109
0.00281819
0.00300513
0.00231069
0.00185681
0.00149298
0.00112797
0.00119036
0.00100834
0.0010043
0.000464944
0.000584309
0.000436487
0.000390545
0.000378521
0.000361379
0.00043543
0.000375985
0.00030906
0.000417653
0.000454198
0.000387644
0.00050381
0.00109835
0.00175318
0.00140124
0.0016804
0.00240585
0.00164068
0.00107365
0.00117306
0.00129659
0.000973927
0.000846437
0.00123324
0.00146167
0.00113088
0.000627248
0.000414358
0.000440763
0.000720036
0.00123027
0.0016923
0.00172276
0.00146612
0.00159272
0.00199719
0.0014863
0.000993748
0.000840067
0.000747432
0.000665105
0.000395189
0.000323563
0.00149623
0.00132096
0.000744263
0.00058294
0.000719579
0.000836077
0.000535806
0.00031449
0.000296184
0.000264566
0.000340547
0.000419877
0.000378374
0.000491097
0.000632853
0.000728491
0.00113799
0.00125185
0.00137983
0.00114493
0.000749212
0.000559083
0.000375567
0.000383369
0.000317253
0.000342695
0.000333983
0.00031249
0.000468825
0.000568666
0.00058933
0.000498424
0.000533184
0.00062436
0.000665406
0.00105262
0.00134988
0.00117146
0.000911113
0.000624945
0.000716041
0.00101395
0.00126536
0.00138708
0.00216134
0.00229941
0.00143619
0.000814013
0.000609507
0.000489642
0.000543985
0.000632534
0.000671535
0.000661525
0.000763301
0.000837912
0.000689087
0.0005103
0.000450653
0.000576355
0.000574668
0.000560667
0.000580526
0.000567253
0.000532819
0.000504523
0.000487197
0.000463161
0.000337457
0.000433894
0.000710528
0.000638685
0.000441977
0.00028436
0.000257377
0.000340532
0.00035769
0.000296068
0.000488939
0.000728775
0.000655542
0.000646022
0.000574525
0.000596672
0.000727261
0.000843405
0.00116631
0.00151304
0.00157285
0.001801
0.0015436
0.00125804
0.00165019
0.00203224
0.0025014
0.00330677
0.00298882
0.00182676
0.00121302
0.000837444
0.000433056
0.000421515
0.000483126
0.000426429
0.000356279
0.0002816
0.000238839
0.000338542
0.000396741
0.000330835
0.000410867
0.0005374
0.000516765
0.000553225
0.000693351
0.000551439
0.000362183
0.000368304
0.000429602
0.000486873
0.00043245
0.000397002
0.000485483
0.000500167
0.000521663
0.000552724
0.000665189
0.00107089
0.00132741
0.000975054
0.000921361
0.00129718
0.000352864
0.000368955
0.000286386
0.000233167
0.000300937
0.000562677
0.000722637
0.000566412
0.00040952
0.000378556
0.000376695
0.00030146
0.000244323
0.000327836
0.000308971
0.000273564
0.000328001
0.000300008
0.000373396
0.00044606
0.000375299
0.000500944
0.00057337
0.000318245
0.00021252
0.000386512
0.000756713
0.000891823
0.000794269
0.00109921
0.00128974
0.000878746
0.000821884
0.000778091
0.000473554
0.00049762
0.000770659
0.000865903
0.000836967
0.000718491
0.000540421
0.000358875
0.000259299
0.000281296
0.000403493
0.000528758
0.000490716
0.000441395
0.000416048
0.000373275
0.000395308
0.000372218
0.000368362
0.000488663
0.000740611
0.000878031
0.000888843
0.000724343
0.000722385
0.000600685
0.000598587
0.000807196
0.00110855
0.00140202
0.00104484
0.00123375
0.0016381
0.000729823
0.00038105
0.000665516
0.00136899
0.00181752
0.00158806
0.00208568
0.00270735
0.00235585
0.00204413
0.00158967
0.00102431
0.00088132
0.000622569
0.000462403
0.000418935
0.000345642
0.000290969
0.000275048
0.000338474
0.000396395
0.000821956
0.00130747
0.00125235
0.00103004
0.00185087
0.00191063
0.00143143
0.0014225
0.0016268
0.00231923
0.0026638
0.00261243
0.00317427
0.00221012
0.00128217
0.000853555
0.000639231
0.000622822
0.000696592
0.000869159
0.000748121
0.000483081
0.000690522
0.000833904
0.000613736
0.00067216
0.000842427
0.00103473
0.00126735
0.00146969
0.00138408
0.00143218
0.00149682
0.0017011
0.00233473
0.00281363
0.00237488
0.00198992
0.0019395
0.00210673
0.00162225
0.000933479
0.000677348
0.000655042
0.000565822
0.000619154
0.00037048
0.000256298
0.000349914
0.00041774
0.000500817
0.00071294
0.000781577
0.000830524
0.000732451
0.000552463
0.000367977
0.000230093
0.000266423
0.000294091
0.000301776
0.000304456
0.000302237
0.000340465
0.000380692
0.00030777
0.000332708
0.0005112
0.000563911
0.000647629
0.000623831
0.0010563
0.00146751
0.00123581
0.000909592
0.00142151
0.00151709
0.000975589
0.000774823
0.000669702
0.000881052
0.00148482
0.00227683
0.00307921
0.00315365
0.00166285
0.000745316
0.000539633
0.00140971
0.00142231
0.00121856
0.00127569
0.00104262
0.000980732
0.00088466
0.000630867
0.000489943
0.000385792
0.000384128
0.00032802
0.000268763
0.0003731
0.000380949
0.000503947
0.000692784
0.000683948
0.000514937
0.00040448
0.000369409
0.000401265
0.000409348
0.000419791
0.000436625
0.000354737
0.000329833
0.000445143
0.000557284
0.000516326
0.000573257
0.000890831
0.00130637
0.000959286
0.000594457
0.000479846
0.000724808
0.000900478
0.000839387
0.000745066
0.000614737
0.000541439
0.000579021
0.000851991
0.00218687
0.00311689
0.00377955
0.00525472
0.00650841
0.00752493
0.00660056
0.00390416
0.00189137
0.000951284
0.000871807
0.000699272
0.000570571
0.000690586
0.000914794
0.00131633
0.00146873
0.00176824
0.00180275
0.00143069
0.00109356
0.000999793
0.00100041
0.000753846
0.00055299
0.000419311
0.000272337
0.000319325
0.000432896
0.000356851
0.000312033
0.00041448
0.000605345
0.000538035
0.000472346
0.000568078
0.000563391
0.000588957
0.000571953
0.000617658
0.000789047
0.00102236
0.00111864
0.00136005
0.000757938
0.00107681
0.00135366
0.00147672
0.00133285
0.00117284
0.000775689
0.000472832
0.000407726
0.000491541
0.000425297
0.000403846
0.000534244
0.000587658
0.00073595
0.00134174
0.00143447
0.00164609
0.00271092
0.00225368
0.00180522
0.00190255
0.00195607
0.00208248
0.00195799
0.00148974
0.00118187
0.00130307
0.000982959
0.000467482
0.000347404
0.000356812
0.000393101
0.000336673
0.000203296
0.000189698
0.000239379
0.000351316
0.000525524
0.000752557
0.000920929
0.000974978
0.000826601
0.000614906
0.000317338
0.000405178
0.00044254
0.000504659
0.000520386
0.000497547
0.000535536
0.000616969
0.00117494
0.00198008
0.00146191
0.000963879
0.000987125
0.00113054
0.00116658
0.00116451
0.00137427
0.00151986
0.0020359
0.00230479
0.00220336
0.00215366
0.00172276
0.00151828
0.00162689
0.00161085
0.0013584
0.00151597
0.00135131
0.00118806
0.000941168
0.00075494
0.000767053
0.000764902
0.000615515
0.000504081
0.000637958
0.000610758
0.000583063
0.000563929
0.000445903
0.000395996
0.00038991
0.00029083
0.00109877
0.000956388
0.000811681
0.00069182
0.0007962
0.000932262
0.0011634
0.00135143
0.00179365
0.00249983
0.00253409
0.0022617
0.00224418
0.00227022
0.00152269
0.000825555
0.000698788
0.000686837
0.000903398
0.00117002
0.00117538
0.00113881
0.00105994
0.00104149
0.00110517
0.00138977
0.00142262
0.00126396
0.00119245
0.00101248
0.000758191
0.000873401
0.000968776
0.000833922
0.000962092
0.00101893
0.00111417
0.000869925
0.00101345
0.000982808
0.000784623
0.000699517
0.000918785
0.00113408
0.000825123
0.0016742
0.00376844
0.00377268
0.00197231
0.00142688
0.00137355
0.00099395
0.000919714
0.0011766
0.0013299
0.00129802
0.000829483
0.000401576
0.000200204
0.000218601
0.000257121
0.000266096
0.000295018
0.000306013
0.000235432
0.000198963
0.000200896
0.000242959
0.000260696
0.00030758
0.000312592
0.000308225
0.000334556
0.000370985
0.000367306
0.000341587
0.000313594
0.000257698
0.000353094
0.000446298
0.000411018
0.000344475
0.000624586
0.000672828
0.000461935
0.000453505
0.000617022
0.000632535
0.000685648
0.000930376
0.00108636
0.000875484
0.000578053
0.000436191
0.000287266
0.000226432
0.000298486
0.00041862
0.000484867
0.000489813
0.000493634
0.000486688
0.000454015
0.00045067
0.000415346
0.000311197
0.000349802
0.000357011
0.000433769
0.000442222
0.000337253
0.000316318
0.000348202
0.000301937
0.000256659
0.000270412
0.000317108
0.000430115
0.000502963
0.000602074
0.000672757
0.000668846
0.00076216
0.000856843
0.000774592
0.000903181
0.000952928
0.000679092
0.000491515
0.000632338
0.000642224
0.000526712
0.000417188
0.000415257
0.000300704
0.000265995
0.000320794
0.000360921
0.000423678
0.000420858
0.000505556
0.000563951
0.000403441
0.000324953
0.000475067
0.000662024
0.000588816
0.000649136
0.00101429
0.00104903
0.000933735
0.000759304
0.00077869
0.00107115
0.00131745
0.00116018
0.00112677
0.00119165
0.000925317
0.000910631
0.000906415
0.000884362
0.000989028
0.00123252
0.00191176
0.00245367
0.00282556
0.00367656
0.00354665
0.00435631
0.00544055
0.00486259
0.00413269
0.00355624
0.00202593
0.000776073
0.000622842
0.000700275
0.000649295
0.000833689
0.00119801
0.00125557
0.00143615
0.00162078
0.00127297
0.00101789
0.000619101
0.000366707
0.000372911
0.000354808
0.000317856
0.000384886
0.000489897
0.000521333
0.000557796
0.000512652
0.000421437
0.000430532
0.000508771
0.000500911
0.000457253
0.000513619
0.000521898
0.000550835
0.000674553
0.000729773
0.000867131
0.00111896
0.00140576
0.00140143
0.00181065
0.00279647
0.00274821
0.00307512
0.00270338
0.00190759
0.00175534
0.00187549
0.00161382
0.000892075
0.000441019
0.000621363
0.000837737
0.000963022
0.000951281
0.000894093
0.000783825
0.000477675
0.000423383
0.000623031
0.000485806
0.000283105
0.000472869
0.00078147
0.00193547
0.00310565
0.00171843
0.00102509
0.000912783
0.000870044
0.00088293
0.000866424
0.000831236
0.00094244
0.0008352
0.000584974
0.000603478
0.000528979
0.000539095
0.000662253
0.000844735
0.000698727
0.000629764
0.00065469
0.000790998
0.00108163
0.00115215
0.000954901
0.000726132
0.000633057
0.000738002
0.00066322
0.000570744
0.000442269
0.000458642
0.000500545
0.000562572
0.000487078
0.00044297
0.000359112
0.000197078
0.000189065
0.00038939
0.000587349
0.00044687
0.000336466
0.000515714
0.00142771
0.00485955
0.0126112
0.00820149
0.00233732
0.00107386
0.0010127
0.000757778
0.000594286
0.000705905
0.000656702
0.000344382
0.000259847
0.000451594
0.000418835
0.000400928
0.000998592
0.00160975
0.00149956
0.00166062
0.00110491
0.000649415
0.000785969
0.000783068
0.000600194
0.000485347
0.000435396
0.000427839
0.000452201
0.000471788
0.000512759
0.000292135
0.000198016
0.00023896
0.000356786
0.000394533
0.000297584
0.000423265
0.000454503
0.00037994
0.000368148
0.000423621
0.000401236
0.000384496
0.000460823
0.000599969
0.000884388
0.000756716
0.000730695
0.00104293
0.00118329
0.000665018
0.000449141
0.000649504
0.000639459
0.000383171
0.000550937
0.000985165
0.00108315
0.000879863
0.000951139
0.00107506
0.00103183
0.000702662
0.000389013
0.000288123
0.000346512
0.000374654
0.000199252
0.000275202
0.000382572
0.000321207
0.000228469
0.000325096
0.000377006
0.000251156
0.000311037
0.00038653
0.000608856
0.00067841
0.000904691
0.00138975
0.00135504
0.00100462
0.000795031
0.000798308
0.000941125
0.000754733
0.000489128
0.000575839
0.0010826
0.00189503
0.0017762
0.00150194
0.00164282
0.00139449
0.00171225
0.00267692
0.00240573
0.00134118
0.00110772
0.0013465
0.00213375
0.001583
0.000640626
0.000328772
0.000237545
0.000226911
0.000274952
0.00043183
0.000567396
0.000370477
0.000166178
0.000371352
0.000567318
0.000317662
8.94306e-05
0.000156159
0.000264068
0.000350102
0.000278211
0.000603076
0.000885659
0.000653547
0.000654499
0.000649718
0.000436034
0.000434891
0.000825233
0.000853343
0.000709798
0.00105248
0.00118127
0.00130613
0.00218352
0.00409551
0.0046089
0.00325826
0.00239881
0.00211074
0.00238708
0.00302875
0.00262357
0.00279073
0.00402586
0.0029081
0.00213726
0.00129218
0.000509045
0.000353201
0.000365311
0.000517449
0.000733635
0.00208112
0.0041778
0.00267782
0.000722418
0.000336379
0.00063981
0.000472377
0.000217045
0.000329083
0.00049221
0.00148091
0.000884833
0.000917061
0.000760125
0.000403595
0.000397826
0.00065005
0.000775355
0.000782706
0.000955005
0.00088696
0.000663869
0.00106663
0.0016889
0.00177943
0.000868583
0.00110542
0.00154109
0.00125307
0.000890683
0.000832026
0.000941797
0.00089082
0.000861749
0.00119873
0.0016549
0.00128277
0.00101034
0.00146782
0.00149457
0.00102793
0.00102793
0.000985224
0.000982232
0.00127118
0.00175182
0.00108947
0.000375154
0.000436561
0.000850327
0.000795588
0.000641852
0.00130205
0.00201677
0.00389716
0.00205664
0.000969463
0.000834251
0.000449456
0.00033073
0.000753383
0.00158012
0.00240182
0.00174771
0.00119938
0.00126507
0.00130662
0.000997555
0.000540479
0.000339108
0.000291693
0.000444609
0.000398965
0.000283711
0.000265337
0.000257953
0.000330054
0.000418886
0.000323784
0.000239458
0.000233053
0.000274418
0.000391328
0.000502345
0.00053384
0.000600481
0.000392246
0.000290837
0.000506693
0.000712531
0.000574638
0.000365393
0.000697759
0.00141398
0.00130609
0.000804256
0.00159202
0.00379005
0.000475858
0.000359256
0.000356382
0.000390794
0.000405298
0.000383579
0.000301265
0.000246183
0.000351023
0.000556473
0.000722402
0.000679711
0.000564195
0.000601038
0.000639847
0.00130678
0.0015629
0.00108545
0.000937411
0.000948023
0.00124394
0.00160083
0.00300395
0.00661684
0.00485965
0.00160698
0.00122971
0.000956771
0.000555584
0.000637329
0.000674068
0.000540907
0.000435209
0.000340721
0.000330764
0.000384078
0.00035043
0.000349945
0.000620746
0.000691571
0.000606988
0.000476056
0.0005064
0.00060293
0.000371638
0.000530148
0.000873296
0.000822391
0.000709776
0.000995751
0.000843194
0.000386181
0.000379251
0.000558925
0.000376138
0.000206302
0.000284929
0.000364674
0.000347677
0.000491056
0.000708788
0.00076348
0.000861148
0.000847634
0.00105841
0.00192722
0.00296857
0.0043873
0.00424957
0.00262682
0.002143
0.00165794
0.000551778
0.000344647
0.000440043
0.000357659
0.000339466
0.00032167
0.000336964
0.000399558
0.000323141
0.000334827
0.000439036
0.000584742
0.000550109
0.000355392
0.000216656
0.000230518
0.00146576
0.00164933
0.00234448
0.00224906
0.00167446
0.00162912
0.00118415
0.000692101
0.000746589
0.000657482
0.000323337
0.000213323
0.000353182
0.000291355
0.000190437
0.000238546
0.000381554
0.000481569
0.000476791
0.000346232
0.000390208
0.000607342
0.000606582
0.000647784
0.0007512
0.000687101
0.000868624
0.00101509
0.000616779
0.000447434
0.000504129
0.000448374
0.000372243
0.00049255
0.0006927
0.000769903
0.000650192
0.000561181
0.00097061
0.00150505
0.00169953
0.00139452
0.000839129
0.0010305
0.00101284
0.00106676
0.00124369
0.00104216
0.000837653
0.000702371
0.000583518
0.000516897
0.000631933
0.000670704
0.000571666
0.000507443
0.000529256
0.000477864
0.000544329
0.000776979
0.00120126
0.00143602
0.00105152
0.000689259
0.000515257
0.00056336
0.000442104
0.000368035
0.000497495
0.000460862
0.000393201
0.000438949
0.000452213
0.000508523
0.000674652
0.000930763
0.00093984
0.00106419
0.00199228
0.00216377
0.00174523
0.00143047
0.00172225
0.00179907
0.00163128
0.00151169
0.00111189
0.00112968
0.0017582
0.00247996
0.00236494
0.00179019
0.00157066
0.00135991
0.00127382
0.00139574
0.00134237
0.00112003
0.00118898
0.00153216
0.00175701
0.00158108
0.00125124
0.00117011
0.000857322
0.000639738
0.000586806
0.000646059
0.000864943
0.000953448
0.00078685
0.000420513
0.000356834
0.000298132
0.000269631
0.000329168
0.000449936
0.000628757
0.000866414
0.00132162
0.00159204
0.00150412
0.00212234
0.00156043
0.0010916
0.000996323
0.000827682
0.00102558
0.000952786
0.000847589
0.00134664
0.00160683
0.00203115
0.00204563
0.00140689
0.000867937
0.000662942
0.000487324
0.000453791
0.000776312
0.000986178
0.00101717
0.00124462
0.0015239
0.00182074
0.00131577
0.000557857
0.000346697
0.000507409
0.000630396
0.000639268
0.000623738
0.000461511
0.000400074
0.000508747
0.000742626
0.001059
0.00104675
0.000968487
0.00103346
0.00114496
0.00117244
0.00115696
0.00115699
0.000937857
0.000755765
0.000744214
0.00061206
0.000567862
0.000525234
0.000531314
0.00097346
0.00101889
0.000985598
0.00149016
0.00159814
0.000482424
0.000429572
0.000342292
0.00030485
0.000314448
0.000295158
0.000287147
0.000315364
0.000295791
0.000316816
0.000335564
0.000342479
0.000331561
0.0002835
0.000260041
0.000342178
0.000501767
0.000481154
0.000636245
0.000826113
0.000820596
0.000675452
0.000557983
0.000686215
0.000676237
0.000564731
0.000730092
0.00107288
0.00130402
0.00138247
0.00100215
0.000468412
0.000309039
0.000313679
0.000299341
0.000357137
0.000324091
0.000251633
0.000380149
0.000451644
0.00038605
0.000422906
0.000363897
0.000371193
0.000331282
0.000443771
0.00040852
0.00039186
0.000527726
0.000639381
0.000906463
0.00103358
0.000827553
0.000556285
0.000561259
0.000843031
0.000998072
0.00134576
0.00157947
0.00125825
0.00088836
0.000680823
0.000803121
0.000953244
0.00113942
0.00100879
0.000877094
0.00119005
0.00118362
0.00111206
0.0015007
0.0020267
0.00233699
0.00318643
0.003546
0.00189854
0.00106215
0.00107438
0.00120115
0.00104184
0.000565762
0.000336894
0.000278422
0.000327947
0.000343452
0.000217676
0.000231211
0.000298843
0.000904137
0.0014237
0.0017483
0.00229898
0.00280361
0.00246427
0.00250226
0.00325703
0.00319877
0.00217105
0.00211998
0.00246051
0.00239636
0.00329742
0.00358493
0.0027933
0.00225365
0.00195988
0.00184823
0.00170769
0.00186083
0.00197453
0.00256133
0.00387227
0.00397142
0.00350804
0.00222046
0.00163947
0.00215387
0.00294089
0.00304913
0.00242591
0.00203118
0.00208886
0.00295075
0.00300275
0.00164454
0.000909369
0.000842663
0.00100476
0.000721903
0.000451465
0.000549235
0.000672105
0.00207605
0.00307631
0.0032785
0.0053557
0.00966306
0.00952766
0.00858233
0.00878619
0.00984658
0.00595934
0.00181489
0.000876247
0.000742222
0.00059691
0.000651155
0.000665858
0.000545435
0.000533852
0.000552787
0.000559906
0.000581361
0.00049657
0.000561413
0.00072276
0.000785983
0.000808113
0.000853236
0.000935679
0.0012629
0.00167572
0.00212936
0.00304533
0.00310914
0.00195602
0.00211288
0.00260249
0.00189278
0.00113098
0.00141437
0.00205702
0.00172092
0.00132988
0.00117501
0.00122445
0.00262621
0.003088
0.00264215
0.00254937
0.00241695
0.00160443
0.00160477
0.00181764
0.0016442
0.00114595
0.00110194
0.00130453
0.00114877
0.00122692
0.00137151
0.00121469
0.000938643
0.000791327
0.000796732
0.00089433
0.000855915
0.000719572
0.00074631
0.00103263
0.00119636
0.000987999
0.00107855
0.00142368
0.000988356
0.000804743
0.000825093
0.000835158
0.000808196
0.000858743
0.0011015
0.00113242
0.00124752
0.00184761
0.00220051
0.00242365
0.00349148
0.00382612
0.00325601
0.00255294
0.00196409
0.000896362
0.000617642
0.000513549
0.000418984
0.000425969
0.000620722
0.000765401
0.000876188
0.000844628
0.00108305
0.00189739
0.00307748
0.00434353
0.00422434
0.00338468
0.00339009
0.00297578
0.00301523
0.0033669
0.00312752
0.00352847
0.00507762
0.00678797
0.00580651
0.00274264
0.00134524
0.00104069
0.000832497
0.00100438
0.00101193
0.00105278
0.00140084
0.00230432
0.00390669
0.00372326
0.00300967
0.00524803
0.00660505
0.00312869
0.00219798
0.00506476
0.008857
0.00560904
0.000776201
0.000840116
0.00104324
0.00109854
0.00129755
0.00196578
0.0025545
0.00255608
0.00262663
0.00251064
0.00244792
0.00287939
0.00308507
0.00288046
0.00288668
0.00274724
0.00272575
0.00302353
0.00292801
0.00244701
0.00299483
0.00453977
0.00508194
0.00470593
0.00503158
0.00434865
0.00484067
0.00447474
0.00262085
0.00275899
0.00370224
0.00415178
0.00408144
0.00379953
0.00434272
0.00476363
0.00460287
0.00530675
0.00600718
0.00407637
0.00211133
0.00174826
0.00187807
0.00121014
0.000973218
0.0013692
0.00179096
0.002391
0.00326857
0.00354884
0.00319598
0.00335117
0.00391752
0.00372858
0.00380138
0.00335083
0.00213892
0.00156903
0.0016547
0.00175465
0.00176112
0.00225431
0.00259809
0.00243329
0.00264716
0.00234361
0.00188659
0.00179224
0.00196207
0.00205678
0.00278074
0.00313386
0.00267606
0.00221522
0.00215392
0.00237401
0.00322711
0.00391209
0.00347692
0.00395559
0.00442644
0.00357117
0.00434745
0.00572978
0.00430897
0.00191456
0.00117882
0.0009241
0.00123666
0.00145567
0.00230214
0.00325917
0.00406024
0.00387144
0.00324987
0.00328211
0.00332111
0.00313346
0.00270598
0.00188115
0.00143449
0.00145337
0.00160647
0.00171314
0.00163469
0.00139592
0.00122767
0.00134619
0.00126364
0.00094928
0.000757712
0.000893597
0.00115023
0.00113008
0.00109796
0.00115195
0.00102141
0.0010675
0.00133042
0.00128122
0.00118262
0.0013768
0.00197756
0.00293773
0.00280204
0.00211154
0.00209893
0.00218069
0.00171208
0.00117286
0.00119457
0.0013102
0.00120479
0.00161059
0.0018913
0.00233486
0.0019494
0.00132205
0.000826613
0.000546424
0.000462399
0.000533434
0.00077205
0.000878516
0.00085515
0.000851989
0.000917473
0.00132529
0.00153714
0.00133581
0.00136732
0.00119512
0.00118588
0.00208411
0.0022395
0.00221129
0.00327227
0.00424593
0.00458106
0.00393513
0.00247647
0.00194007
0.002482
0.00267354
0.00200537
0.00115813
0.00120603
0.00116954
0.000891369
0.000732348
0.000697251
0.000782369
0.000800328
0.000860084
0.00114839
0.00113874
0.00151538
0.00180358
0.00124857
0.000865239
0.000945828
0.000985158
0.00092674
0.00102255
0.00114287
0.00101469
0.000898475
0.00104084
0.00135087
0.00142388
0.00130671
0.00125069
0.00110681
0.000998544
0.00114098
0.00100132
0.00119495
0.00191417
0.00225406
0.00276503
0.00344713
0.00376365
0.00368833
0.00319357
0.00264454
0.00135632
0.000753133
0.000569196
0.000371992
0.00055763
0.000660226
0.000613008
0.000692551
0.000790142
0.000742995
0.000757929
0.000917833
0.0010785
0.00124134
0.00124135
0.000592317
0.000645925
0.000724826
0.000764615
0.000861943
0.0016817
0.00248087
0.00316959
0.00476064
0.00464361
0.00286935
0.00218745
0.0024888
0.00264598
0.00248921
0.00156746
0.000814114
0.000643395
0.00058057
0.000441391
0.000534924
0.000633453
0.000531519
0.000613928
0.000825677
0.000787191
0.000653921
0.000585772
0.000711484
0.000981494
0.00101577
0.000899771
0.000663391
0.00049578
0.000648057
0.000819244
0.000832933
0.000913709
0.00085366
0.000784744
0.000900573
0.000888216
0.000687734
0.000569021
0.00177875
0.00180648
0.00256696
0.00436991
0.00413047
0.00295989
0.00266665
0.00219401
0.00258756
0.00319324
0.00267563
0.0019254
0.00140275
0.000836826
0.000711096
0.000764575
0.000684361
0.000675549
0.000642781
0.000721297
0.000924452
0.0010261
0.00101099
0.00131659
0.00154436
0.00176754
0.00185636
0.00182292
0.00227146
0.00481106
0.00540391
0.00607662
0.00728014
0.00599887
0.00473955
0.00390025
0.00260623
0.00179689
0.00151949
0.00138825
0.0013539
0.00143848
0.00138867
0.00147264
0.00341467
0.00276844
0.00392528
0.0103012
0.0146844
0.00617504
0.00224564
0.00134993
0.00128019
0.00137462
0.00125317
0.000924202
0.000818347
0.000783256
0.000859441
0.000772317
0.000915737
0.00140747
0.00120452
0.00120998
0.00157946
0.00190922
0.00221638
0.00291824
0.00443162
0.00733522
0.0117583
0.0107451
0.00471552
0.00266285
0.00251738
0.00480456
0.0101715
0.0101241
0.00683427
0.00648167
0.00716826
0.00553816
0.00417264
0.00370345
0.00292582
0.00279356
0.00222274
0.00251023
0.00110981
0.00114377
0.000963971
0.00115796
0.0012453
0.000963954
0.000975075
0.000950095
0.00073873
0.00084527
0.000964711
0.000898392
0.00105843
0.00223091
0.00406118
0.00327316
0.00338133
0.00559287
0.00498717
0.00298337
0.00261344
0.00292449
0.00247748
0.00200538
0.00242715
0.00303773
0.0030706
0.00207475
0.00108321
0.000905547
0.00144947
0.00258439
0.00367288
0.00389681
0.00363762
0.00385075
0.0047269
0.00366019
0.00231585
0.00189299
0.00166333
0.00149695
0.000930011
0.000841313
0.00357696
0.00294732
0.00180887
0.00137012
0.00155896
0.00180138
0.00113731
0.000685185
0.000635008
0.000621207
0.000733451
0.000846355
0.000819609
0.00112813
0.00147245
0.00153464
0.00237798
0.00281076
0.0034598
0.00296382
0.00179734
0.00133134
0.000921489
0.000793582
0.000679192
0.00073503
0.000681671
0.000653276
0.00096924
0.00133949
0.00137596
0.00110297
0.0010952
0.00132982
0.00155048
0.00235261
0.00300987
0.00262956
0.00208464
0.00141451
0.00154403
0.0020872
0.00260993
0.0032325
0.00462746
0.00518172
0.00392032
0.00217359
0.00149246
0.0012647