/*--------------------------------*- C++ -*----------------------------------*\
  =========                 |
  \\      /  F ield         | OpenFOAM: The Open Source CFD Toolbox
   \\    /   O peration     | Website:  https://openfoam.org
    \\  /    A nd           | Version:  6
     \\/     M anipulation  |
\*---------------------------------------------------------------------------*/
FoamFile
{
    version     2.0;
    format      ascii;
    class       volScalarField;
    location    "0";
    object      nut.air;
}
// * * * * * * * * * * * * * * * * * * * * * * * * * * * * * * * * * * * * * //

dimensions      [0 2 -1 0 0 0 0];

internalField   nonuniform List<scalar> 
125840
(
-1.76785e-10
5.02421e-10
-1.16043e-09
4.79706e-11
4.48971e-09
3.11178e-09
-1.54263e-09
-1.05863e-10
5.83217e-09
6.68945e-09
4.45587e-09
1.8869e-09
1.26065e-10
-3.86501e-09
-1.69289e-09
4.34563e-10
1.47914e-09
3.95256e-09
5.18148e-09
8.21047e-10
-4.22859e-09
-2.76857e-09
-2.17226e-09
-1.29757e-09
-5.46675e-10
2.60182e-09
8.07435e-09
6.05441e-09
5.25636e-10
1.94782e-09
4.07398e-09
1.67742e-09
-2.25e-10
-2.37273e-09
-3.36356e-09
4.38833e-10
3.54888e-09
3.18636e-09
6.20892e-10
7.72475e-10
3.22394e-10
-1.5354e-09
-4.11307e-09
-2.68769e-09
-6.56362e-09
1.27924e-09
7.47963e-10
-6.26245e-09
-2.51954e-10
2.91583e-09
9.20893e-10
-1.07849e-09
6.45516e-10
5.33403e-09
3.92296e-09
8.16454e-09
6.93502e-09
-2.32768e-09
-2.71269e-09
-1.56765e-09
2.75315e-10
1.76638e-09
2.72295e-09
-1.95825e-09
-3.68786e-09
-5.67844e-10
1.44861e-09
6.71216e-10
-1.40962e-10
9.6296e-10
5.42105e-10
-1.99421e-09
-3.21023e-09
-3.23551e-09
-3.52912e-09
-3.18346e-09
4.4065e-10
3.6275e-10
-2.29399e-09
9.50628e-10
3.01019e-09
3.89414e-10
-4.2441e-09
-4.91757e-09
-1.21507e-10
4.84978e-09
2.99181e-09
-7.20862e-09
-1.17967e-09
3.36399e-10
1.036e-09
-2.88695e-09
2.54014e-09
5.43526e-09
5.30045e-09
4.21812e-09
4.25242e-09
7.64767e-09
2.36386e-09
-2.57109e-09
-3.82396e-09
1.33312e-09
5.19392e-09
5.30924e-09
2.81727e-09
-2.23574e-09
-2.69277e-09
2.20027e-09
5.41739e-09
1.29654e-09
-1.01205e-09
1.46517e-09
3.47425e-09
1.30978e-09
-3.0802e-09
-2.58712e-09
6.33029e-11
-2.92312e-10
-2.30003e-10
1.45627e-10
1.09284e-09
8.98398e-10
2.34489e-10
-2.33994e-09
-4.80373e-09
-2.28316e-09
1.05987e-09
-3.96815e-09
-1.94414e-09
4.37368e-09
8.83706e-09
6.30718e-09
8.21658e-09
3.47355e-09
1.80101e-09
8.58104e-10
-8.00934e-10
-2.55526e-09
-1.7347e-09
-2.15896e-10
8.6989e-10
4.38009e-09
-3.32294e-09
-1.0715e-08
-8.47964e-09
-1.8094e-09
2.79223e-09
4.00223e-09
3.35526e-09
9.85461e-10
-7.25978e-10
1.82434e-09
2.90115e-09
-2.51366e-09
-3.6694e-09
7.50608e-10
6.52549e-09
6.1259e-09
3.05171e-09
3.47817e-09
2.1162e-09
4.86997e-10
2.52576e-10
7.11873e-10
-9.18639e-10
-4.7748e-09
-1.54486e-09
3.32383e-09
-1.11067e-10
-3.61121e-09
5.14108e-09
8.17945e-09
-1.94829e-09
-8.03579e-09
1.25814e-09
1.03676e-08
3.68655e-09
1.5722e-09
-3.00516e-10
-5.24965e-10
-1.01971e-10
-4.97126e-10
-1.59535e-09
-1.64488e-10
5.29446e-09
8.66875e-09
4.78319e-09
3.46056e-10
-8.01032e-11
7.28368e-10
2.6723e-09
2.75464e-09
1.26996e-09
9.12917e-10
2.87253e-09
1.40791e-09
-3.41204e-09
-3.43337e-09
1.37691e-09
3.93103e-09
2.94845e-09
-4.64517e-12
-2.10703e-09
1.97317e-09
3.7193e-09
1.06148e-09
-1.72429e-09
-8.12853e-10
1.27342e-09
6.57314e-10
3.88695e-10
2.44743e-09
6.04121e-11
-1.58704e-09
3.97331e-09
5.83426e-09
2.69853e-09
-2.41009e-09
1.81268e-09
6.07448e-09
-3.59639e-09
-1.42465e-09
-2.69123e-09
-2.36107e-09
2.86587e-10
1.78234e-09
-5.66143e-10
-8.76216e-10
1.71493e-09
3.09273e-09
4.31252e-09
5.28914e-09
5.22273e-09
3.44858e-09
1.57663e-09
3.08754e-10
-5.93368e-10
-7.71481e-10
7.35725e-10
-3.39958e-10
-9.81723e-10
1.76254e-09
3.93174e-09
3.19222e-09
3.10936e-10
-2.8213e-09
-2.9035e-09
1.38522e-09
3.54256e-09
1.26181e-09
-1.8462e-09
-1.52828e-09
-9.08128e-10
-4.60436e-10
-1.98596e-09
-2.77967e-09
1.2181e-09
1.82678e-09
-1.61864e-09
-1.45705e-09
4.28031e-09
7.58122e-09
3.03985e-09
-3.10257e-09
-3.28404e-09
-5.89462e-09
-5.33275e-09
-2.60501e-09
2.04089e-10
2.84818e-09
1.63159e-09
6.25479e-11
2.54602e-10
2.0309e-09
5.56632e-09
7.08013e-09
3.73206e-09
2.80339e-10
1.20313e-10
6.34539e-10
-8.08497e-10
-1.58656e-09
-6.97874e-10
5.5026e-10
1.66819e-09
2.4205e-09
-6.86375e-10
-2.06178e-09
-3.073e-10
1.59348e-09
5.32786e-10
-1.71791e-10
-1.09792e-09
-2.89745e-09
-1.9616e-09
-3.70188e-10
-7.90808e-10
-4.77391e-09
-6.2867e-09
-3.04716e-09
3.33109e-09
3.0129e-09
8.69811e-10
2.00035e-09
4.11512e-09
2.96748e-09
4.61849e-10
-5.39008e-10
-2.24296e-09
-1.62738e-09
-1.54523e-09
-2.0902e-09
1.89808e-09
4.71971e-09
1.945e-09
8.55245e-10
8.01189e-10
2.98709e-10
1.09682e-09
1.75996e-09
1.21119e-11
-1.72293e-09
-2.66857e-09
-3.10221e-09
-2.74764e-09
-1.18585e-09
-5.32478e-10
-2.04856e-11
-1.86335e-09
-1.76145e-09
-9.31813e-10
-3.9292e-09
-4.909e-09
-2.55953e-09
-3.94025e-10
1.60765e-09
2.75342e-09
-7.83543e-10
-2.77866e-09
-3.69875e-09
-3.8365e-09
-1.54187e-09
4.43003e-09
5.46114e-09
2.54389e-09
4.06913e-10
-8.21827e-11
-1.83144e-10
-3.19107e-10
-2.2648e-09
-1.40814e-09
4.87885e-11
-1.47431e-09
5.99758e-10
2.16038e-09
2.48305e-09
2.20446e-09
-1.14214e-09
-2.1493e-09
-1.82323e-09
1.17307e-09
2.92482e-09
-1.29178e-09
-4.13544e-09
-2.04855e-09
-8.96803e-11
2.2177e-11
-8.14818e-10
-3.27145e-10
7.44062e-10
4.56446e-10
2.72357e-10
-2.25227e-09
-3.45545e-09
-1.94117e-09
-2.77884e-09
-2.98424e-09
-1.96577e-09
1.88692e-09
3.50252e-09
1.38098e-09
9.39585e-11
2.57276e-09
1.83457e-09
2.34275e-10
1.59983e-09
5.33719e-09
1.67031e-09
-1.48164e-09
-1.24063e-09
-1.04357e-09
-2.70675e-10
9.03987e-10
-5.05431e-10
-7.64895e-10
-9.6203e-11
-2.31736e-09
-2.18915e-09
-1.38564e-09
-1.59886e-09
-2.35171e-09
-4.87664e-09
-2.18616e-09
-2.75607e-09
-2.44032e-09
2.1496e-09
3.72685e-09
8.38352e-10
3.71625e-10
-9.98372e-12
-7.62995e-11
1.88236e-09
3.88164e-09
4.3731e-09
2.16784e-09
-7.37164e-10
-6.88519e-10
-6.68922e-10
-1.29762e-09
-5.48357e-10
1.39371e-09
2.19301e-09
9.80057e-10
-1.64836e-09
-2.53217e-09
-4.79933e-10
1.38064e-09
4.0529e-09
4.16052e-09
-1.09256e-09
-4.07379e-09
-2.29645e-09
-1.1965e-09
-8.06986e-10
-4.7619e-10
-1.20574e-09
-1.12723e-09
-2.03224e-10
1.14067e-09
-9.19132e-11
5.5161e-09
2.55386e-09
-4.30055e-09
1.20496e-10
1.0928e-08
9.74646e-09
6.41684e-09
1.32214e-09
-2.10635e-09
4.40793e-10
3.21115e-09
2.37886e-09
3.13712e-09
2.71885e-09
8.93858e-10
1.20908e-09
4.06386e-10
-5.95375e-10
-2.0045e-09
-2.8701e-09
-1.78416e-09
1.41211e-09
-6.04174e-10
-2.51326e-09
-1.09525e-10
1.36307e-09
2.655e-09
5.66024e-09
6.28472e-10
-4.44183e-09
-2.82946e-09
-1.90351e-09
6.41997e-09
8.4802e-09
4.86649e-09
5.86727e-09
6.90766e-09
4.26382e-09
1.21332e-09
7.42535e-10
1.11234e-09
1.36272e-09
-2.63091e-10
3.39848e-10
4.19123e-09
7.67106e-09
-5.09705e-10
-2.13329e-09
3.6322e-09
1.23534e-08
1.14641e-08
4.54784e-09
7.13462e-10
-9.37573e-10
-1.20169e-10
8.67445e-10
5.497e-10
-7.00787e-10
8.65659e-10
9.91748e-10
-3.13969e-09
-2.38034e-09
2.78205e-09
4.02004e-09
-6.36417e-10
-1.75223e-09
-2.52414e-10
-1.39526e-09
-3.27912e-09
-6.82047e-09
-4.01023e-09
6.56263e-09
9.58247e-09
4.33317e-09
-2.18572e-09
-7.40119e-09
-2.62758e-10
7.92435e-09
7.11915e-09
3.47264e-09
3.60946e-09
5.58536e-09
3.66247e-09
1.71826e-09
1.43027e-09
2.14215e-09
1.15113e-09
-8.49826e-10
-1.03308e-10
3.86344e-10
3.63923e-10
-2.29035e-09
1.03228e-09
1.63553e-09
-2.09859e-09
6.38133e-10
3.05285e-09
4.7696e-10
-1.28307e-09
9.12024e-11
-1.23567e-09
-4.82814e-09
-1.89563e-09
1.22007e-09
-2.8183e-09
-3.82301e-09
3.08562e-09
7.25502e-09
2.46697e-09
-5.41052e-10
1.71639e-09
3.64223e-09
-5.01514e-10
-8.18676e-09
-1.18647e-09
9.90795e-09
7.81066e-09
-5.70038e-10
-5.39961e-09
-3.912e-09
-1.23666e-10
2.37174e-09
1.14431e-09
-6.33443e-10
1.36817e-09
5.19795e-09
5.0279e-09
3.12063e-09
1.3175e-09
9.99551e-10
3.41699e-10
2.50776e-10
-3.28549e-09
5.65825e-10
2.04521e-09
2.98805e-09
6.10199e-10
-1.0068e-10
1.80155e-09
3.33663e-11
-1.13019e-09
-1.33812e-09
-1.48193e-10
-8.8718e-11
-2.48043e-09
-5.16792e-09
-1.22587e-09
-1.39063e-09
-2.77059e-09
-1.61346e-09
1.51215e-09
4.59667e-09
3.86083e-09
3.14861e-09
3.62078e-09
4.02899e-09
-6.10825e-11
-5.65402e-09
-1.31952e-09
-2.6573e-09
-3.37652e-09
-1.72885e-09
1.53347e-09
1.12817e-09
-3.71305e-09
-5.2382e-09
-4.25736e-09
-4.04931e-09
-7.57162e-10
9.88162e-10
1.82451e-09
8.42332e-10
-2.47443e-09
-3.03478e-09
-4.91271e-09
-6.01104e-09
-2.62547e-09
9.18417e-11
5.55505e-09
7.85754e-09
4.88779e-09
2.91972e-09
2.20255e-09
-1.95847e-09
-1.69946e-09
1.85321e-09
1.92513e-09
5.99723e-11
-2.40681e-10
1.48599e-09
2.50832e-10
-1.38948e-09
-4.65584e-10
-7.92272e-10
-1.79732e-09
5.61086e-10
1.35902e-09
1.45978e-09
6.129e-10
-9.71962e-10
-1.03646e-09
2.88461e-09
5.59858e-09
1.28087e-09
-2.28302e-09
-3.57859e-10
3.62263e-10
-1.70653e-09
-2.86995e-10
5.75368e-11
-1.16928e-09
-5.76031e-10
-7.35103e-10
-1.79476e-09
-5.09961e-10
-1.885e-09
-1.78678e-09
-1.43035e-09
-2.64536e-09
-3.46294e-09
-2.06318e-09
-2.18317e-09
2.35351e-09
3.35e-09
1.81497e-09
1.32666e-09
-2.58003e-09
-2.90347e-09
-5.70799e-11
4.5112e-09
6.90289e-09
2.56392e-09
-1.11206e-10
6.56888e-09
6.36332e-09
1.17382e-09
-9.7214e-10
-3.1365e-10
-5.26134e-10
-1.37018e-09
1.7717e-10
-1.17215e-09
-3.23717e-09
-2.54441e-09
5.04504e-10
2.25035e-09
1.54931e-09
7.61239e-10
1.13267e-09
7.56864e-10
8.08863e-10
1.72824e-09
1.0235e-09
-5.57307e-10
-5.22062e-10
4.828e-10
-1.37962e-09
-2.36408e-09
-2.80478e-09
-3.06377e-09
-1.37093e-10
2.34122e-09
2.19948e-10
-1.22825e-09
-3.54496e-09
-5.0217e-10
2.38971e-09
2.3927e-09
7.22048e-10
-1.93336e-09
-2.04547e-09
3.68724e-09
6.66206e-09
6.34245e-09
3.01857e-09
9.88502e-10
-1.52596e-10
-9.29971e-10
-1.69127e-09
-8.79505e-10
3.13439e-10
-1.30325e-11
5.99838e-10
3.64416e-10
-7.52336e-10
-1.80534e-09
-1.32104e-10
2.35937e-10
-8.64886e-10
-2.22575e-09
-2.08997e-09
1.2206e-09
1.94415e-09
-5.50352e-10
2.1756e-09
5.25037e-09
3.49459e-09
3.43607e-09
3.9457e-09
1.04341e-09
-1.30936e-09
-3.29955e-10
-2.53548e-10
5.1465e-10
2.29978e-09
2.28636e-09
-2.36476e-09
-4.76945e-09
1.88446e-09
-1.29833e-10
-2.181e-09
-3.51542e-09
2.10553e-11
2.36125e-09
2.1572e-09
-3.62873e-10
-3.47281e-09
-5.33651e-09
-3.74712e-09
-2.63236e-09
-1.58498e-09
1.41434e-09
-9.66374e-10
-2.8493e-12
1.7677e-09
-1.16763e-09
-1.72425e-09
9.96966e-10
1.48918e-09
-2.14826e-09
5.77358e-10
3.3375e-09
-6.30364e-10
-5.47735e-10
1.33802e-09
2.09003e-09
2.13887e-09
-2.06731e-09
-2.4971e-09
1.19929e-09
2.09058e-09
1.7169e-09
1.05076e-09
3.79104e-09
5.88623e-09
5.38841e-09
4.05714e-09
1.87061e-09
1.01438e-09
1.04126e-09
3.43132e-09
4.18773e-09
6.16719e-09
1.88079e-09
1.29379e-09
-2.21297e-09
-2.95847e-09
1.17227e-09
1.8891e-09
7.84098e-10
-1.0244e-09
-2.70362e-09
-1.76321e-10
-2.28208e-09
-2.56151e-09
2.98858e-09
5.78483e-09
4.25969e-09
1.91251e-09
-1.22259e-09
-1.24983e-09
1.59998e-09
2.86653e-09
9.16921e-10
-1.16978e-10
4.64457e-10
-4.6793e-10
1.92888e-09
2.17557e-09
-3.92221e-09
-2.76045e-09
3.14573e-09
3.64818e-10
-2.63938e-09
-5.47654e-10
-7.82902e-10
-3.54912e-09
-2.66723e-09
1.98539e-10
-3.67131e-10
-3.0128e-09
-1.22085e-09
4.54314e-09
4.99627e-09
5.2653e-09
9.8214e-09
3.474e-09
4.56513e-09
2.00725e-09
-9.07201e-10
-2.72049e-09
-2.60688e-09
-3.42924e-09
-2.33414e-09
-2.54105e-09
-1.34897e-09
2.13741e-09
1.75058e-09
3.90611e-09
4.47151e-09
4.06947e-09
3.81681e-10
2.60383e-10
-3.51999e-10
-1.37252e-09
-1.41613e-09
-1.02072e-09
4.16342e-10
-1.39427e-09
-1.71154e-09
-5.97202e-10
4.92646e-10
-4.06143e-09
-7.50734e-09
-6.74514e-09
1.68463e-09
2.54515e-09
-2.1458e-09
6.52923e-11
3.75039e-09
4.35968e-09
-5.644e-10
-4.62896e-09
-6.09861e-09
-5.59867e-09
-1.92224e-09
3.59977e-09
5.33772e-09
4.25171e-09
3.85011e-09
-6.39476e-09
-1.57745e-09
-4.69569e-10
5.25363e-09
8.68084e-09
6.95418e-09
6.6679e-09
5.20024e-09
4.83052e-09
2.30618e-09
1.37665e-09
6.56833e-10
-2.92965e-09
-3.80379e-09
-1.15766e-09
-1.01895e-09
-5.35616e-10
3.12558e-09
3.71779e-09
3.10076e-09
1.54553e-09
1.90811e-10
1.14327e-09
2.23398e-10
-1.2343e-09
-2.54075e-09
-4.55223e-09
-3.73515e-09
-4.69421e-09
-4.80335e-09
-3.1739e-09
-3.95001e-09
-1.83484e-09
1.10487e-09
6.69503e-10
1.29767e-10
3.60401e-09
4.48721e-09
2.03272e-09
1.33545e-09
1.0665e-09
-8.2883e-10
-4.47273e-09
-8.90599e-09
-6.18824e-09
-3.99462e-09
-2.48201e-09
7.47364e-10
1.05065e-09
4.42774e-10
5.89926e-09
7.81132e-09
8.80007e-09
8.8446e-09
5.67672e-09
2.68797e-09
-1.9042e-09
-5.69873e-09
-2.83481e-09
1.23397e-09
1.49977e-09
-1.07218e-09
3.51516e-10
4.14601e-09
3.98047e-09
2.12593e-09
3.6367e-09
6.09619e-09
4.64827e-09
2.06046e-09
2.2491e-09
4.22031e-09
3.85985e-09
2.13055e-09
-4.63971e-10
-3.60108e-09
-5.19425e-09
-2.89218e-09
-1.3208e-09
1.82663e-09
4.90857e-09
2.68596e-09
-1.00755e-09
-3.02838e-09
-3.19583e-09
-1.1719e-09
-3.39857e-09
-6.09129e-09
-1.04361e-09
-2.12189e-09
-2.6964e-09
1.36666e-09
4.18701e-09
5.86341e-09
1.14498e-08
1.01291e-08
4.57461e-09
5.13111e-10
-1.83887e-09
-1.95102e-09
-1.16361e-09
-3.18176e-09
-6.30668e-09
-4.63421e-09
9.414e-11
-3.18946e-09
-1.43266e-09
3.25586e-09
1.61565e-09
1.5701e-09
1.63468e-09
6.44151e-10
3.89041e-09
3.67608e-09
-5.91668e-10
2.56344e-09
7.62151e-09
5.44895e-09
3.28472e-09
3.14456e-09
2.92272e-09
6.48262e-10
-1.1421e-09
-1.37897e-09
-2.89039e-09
-4.23081e-09
-2.64914e-09
-1.41623e-09
-2.42122e-10
2.64661e-09
3.2531e-09
8.88155e-10
1.10878e-09
-7.07435e-10
-3.97131e-09
-3.25163e-09
-1.94312e-09
-1.77723e-09
-2.53561e-09
-6.40338e-09
-9.04583e-09
-2.46324e-09
3.69476e-09
4.19857e-09
3.36753e-09
1.38873e-09
-5.72023e-10
-4.6364e-09
-4.24586e-09
-2.90605e-09
-6.24171e-10
-9.27054e-12
-1.53453e-09
1.20828e-09
2.83716e-09
1.47871e-09
2.65123e-09
2.50493e-09
5.28121e-10
2.23932e-09
4.59563e-09
9.19384e-10
-4.38779e-10
3.30996e-09
6.97754e-09
3.50899e-09
1.9798e-10
-1.03207e-09
1.12896e-09
1.96086e-09
1.99055e-09
2.70829e-09
1.79402e-09
2.15393e-10
7.21033e-11
9.66944e-10
3.76723e-10
3.33783e-09
7.53354e-09
6.01759e-09
3.29788e-09
1.37665e-09
-1.44101e-09
-2.63408e-09
-3.891e-09
-2.0435e-09
1.23361e-09
3.04228e-09
1.5209e-09
-2.1616e-10
7.72712e-10
2.43611e-09
1.3288e-09
-1.05955e-09
-2.96733e-09
-4.81296e-09
-3.60874e-09
-1.02736e-09
7.09064e-10
2.35649e-09
2.71793e-09
7.82982e-10
2.60023e-09
4.50099e-09
2.66245e-09
2.86358e-10
-1.62136e-10
1.9823e-09
6.56553e-09
9.26647e-10
-2.96359e-09
-1.5729e-09
2.9136e-09
1.3298e-09
1.60435e-09
3.62657e-09
2.12545e-09
-1.87453e-09
-4.68736e-09
-3.07951e-09
-4.29255e-09
-5.24222e-09
2.67073e-10
4.64179e-09
8.70873e-09
8.80008e-09
1.85283e-09
-9.96371e-10
2.51606e-09
-5.59215e-10
-5.28918e-09
-1.89054e-09
3.29577e-09
4.45438e-09
2.44989e-09
2.65043e-09
7.45634e-10
1.94233e-10
-4.03034e-10
-1.68076e-09
-1.67595e-09
-1.88545e-09
-8.79509e-10
3.48225e-10
5.75784e-10
1.41926e-10
1.65225e-09
2.03637e-09
3.78917e-11
-2.06714e-10
2.11572e-10
-5.85138e-10
-8.07259e-10
-1.27172e-09
4.60642e-10
-1.62461e-09
-1.21893e-09
-1.99646e-09
6.60738e-10
2.25962e-09
-9.78885e-10
-4.16748e-09
-4.02751e-09
-3.6043e-09
-4.32893e-09
-5.71911e-09
1.10382e-09
9.01276e-09
9.16871e-09
6.48532e-09
1.91696e-10
-1.14146e-10
1.38997e-10
-2.06281e-09
-1.58179e-09
7.56908e-10
1.97458e-09
1.24307e-09
4.55644e-10
-1.17386e-09
3.89059e-10
6.28493e-10
6.87951e-10
2.70988e-09
3.19646e-09
2.07337e-09
2.52561e-09
2.11494e-09
1.1584e-09
3.28641e-09
1.83274e-09
-1.67192e-09
2.92398e-11
1.16989e-10
-1.68812e-09
-2.03883e-09
-2.97343e-09
-9.35025e-10
5.01336e-09
4.32414e-09
4.8358e-10
4.06365e-10
-4.3435e-11
1.2034e-09
4.07981e-09
7.26535e-09
7.23583e-09
1.38186e-09
5.23643e-09
3.48899e-09
-5.02619e-10
-2.9219e-09
-4.53796e-09
-4.95382e-09
-5.78636e-10
1.29402e-09
-3.20015e-10
1.47031e-09
2.29892e-09
-9.64076e-10
-3.07184e-09
-9.2324e-10
1.62856e-09
-2.56623e-09
-4.27268e-09
-3.25275e-09
-1.78657e-09
-2.68789e-10
-1.97046e-10
-1.76559e-09
-1.14556e-09
7.64212e-10
1.46213e-10
2.3631e-09
3.6202e-09
1.63974e-10
-5.70545e-10
3.49965e-10
-4.94133e-10
-3.78059e-10
-5.63228e-10
-1.27599e-09
-7.21981e-10
6.25242e-10
1.47353e-09
1.32115e-09
1.16808e-09
7.61996e-10
1.01622e-09
5.31093e-09
9.61573e-09
7.86889e-09
5.28037e-09
7.61873e-10
4.15235e-10
-2.21245e-10
-1.73382e-09
-7.9715e-10
-5.68599e-10
8.95129e-10
3.57971e-09
4.50773e-09
1.6023e-09
-2.89659e-10
1.65651e-09
1.81898e-09
-3.09626e-09
2.80023e-09
2.04329e-09
-3.04491e-09
-3.17871e-09
-1.85909e-09
-7.07091e-10
-1.05089e-09
-2.50067e-09
-8.65676e-10
1.63113e-09
1.99392e-10
-1.43762e-09
-1.31304e-09
1.81677e-10
2.26478e-10
-1.55082e-09
-1.95874e-09
-6.10916e-10
-2.66471e-09
-6.44788e-09
-3.38847e-09
-1.28003e-09
8.92911e-10
7.94309e-09
6.12353e-09
1.09169e-09
2.56821e-09
6.55419e-09
8.68029e-09
-2.34593e-09
-2.89954e-09
-1.70482e-09
1.1797e-09
7.49928e-10
2.51304e-10
1.83219e-09
5.00153e-09
5.0041e-09
3.34841e-09
8.13364e-10
2.13964e-11
-8.5272e-11
-3.64148e-09
-6.48061e-09
1.66346e-08
2.3611e-08
1.4698e-08
7.53672e-09
3.40182e-09
-1.09001e-09
-4.94601e-10
5.58373e-10
-1.85107e-09
2.08759e-09
1.41888e-09
-8.54933e-10
2.5808e-10
1.47874e-09
-2.82377e-10
1.38674e-09
1.45776e-09
-6.05372e-12
-7.73247e-10
-3.40629e-09
-3.36576e-09
-1.17532e-09
2.15975e-09
5.42575e-09
5.80728e-10
-1.81147e-09
1.23025e-09
4.17242e-09
2.27584e-09
-5.83923e-11
3.43106e-10
-2.51803e-09
1.04156e-09
6.38837e-09
2.30723e-09
-1.55785e-09
-1.18781e-09
-8.19686e-10
-4.04668e-10
1.91526e-09
6.06501e-10
-5.82858e-09
-1.01978e-08
-1.21545e-08
6.08064e-09
1.58428e-08
1.58016e-08
9.59402e-09
3.77868e-09
-3.91844e-10
1.20329e-09
4.06815e-09
-1.79847e-09
-2.59576e-09
-2.65141e-10
4.10944e-09
6.3898e-10
-5.39994e-09
-7.23941e-09
-7.62666e-10
2.63556e-10
-6.89594e-10
4.02157e-09
6.76182e-09
3.62173e-09
2.93003e-09
1.49331e-09
-2.37367e-09
-2.47986e-09
2.05528e-09
3.25029e-09
-1.52283e-09
-3.6241e-09
4.83362e-10
1.54399e-09
1.69592e-09
-1.64194e-10
1.1075e-10
4.63189e-10
9.35626e-10
-2.42621e-09
-1.77746e-09
-8.75754e-10
2.17203e-10
-3.58793e-10
-1.23735e-09
-4.3451e-09
2.81627e-09
2.38033e-09
2.14651e-09
-1.41899e-09
-2.81727e-09
6.97298e-10
2.45366e-09
1.55151e-09
4.57897e-09
5.31333e-09
3.71009e-10
-6.25509e-09
-4.00674e-09
6.27806e-10
2.41901e-09
-1.32181e-09
-1.26302e-09
-8.99069e-10
3.47831e-09
6.01224e-09
4.27297e-09
1.74896e-09
5.06336e-09
-4.66412e-10
-5.43232e-09
-1.99909e-09
-3.87543e-10
-7.28558e-10
-3.88438e-09
-1.46435e-09
-2.23411e-09
-1.69901e-10
-6.51182e-10
-2.70529e-09
-4.50768e-09
-2.78192e-09
1.729e-09
3.0472e-10
-2.37333e-11
1.72516e-09
8.90289e-10
-1.10278e-09
1.47181e-09
4.10851e-09
1.16627e-09
-3.96195e-10
2.69936e-09
2.6492e-09
-1.08366e-09
2.54583e-09
4.40602e-09
-6.47489e-09
-7.01466e-09
7.07413e-09
1.17063e-08
2.60827e-09
-3.97244e-09
-1.1769e-09
4.31437e-09
5.98682e-09
3.914e-09
8.2414e-10
-2.28168e-10
-5.07175e-09
-6.14337e-09
-8.94095e-10
-5.14264e-10
1.44779e-09
3.76961e-09
5.3256e-09
1.14132e-09
-1.34115e-09
7.79807e-10
6.44854e-10
1.47114e-09
-5.2998e-09
-6.027e-09
-3.61498e-10
-1.14587e-09
-2.48602e-09
2.73669e-09
2.37155e-09
-2.3369e-09
-2.21516e-09
3.14823e-10
-4.41864e-09
-6.65356e-09
-2.51307e-09
3.91056e-09
3.46497e-09
4.90837e-10
2.68667e-09
5.54867e-09
5.14689e-09
7.84982e-10
-4.44132e-09
1.26676e-10
8.10306e-09
4.05614e-10
-4.46436e-10
5.58812e-09
3.95944e-09
4.89777e-09
4.62011e-09
1.00229e-09
1.78726e-10
-8.63677e-10
-3.89425e-09
-6.79696e-09
1.03095e-09
3.87445e-09
3.6272e-09
5.51075e-09
6.97507e-09
1.52312e-09
-1.68354e-09
-4.56326e-10
2.95634e-09
9.45185e-09
7.34455e-09
3.48443e-09
4.34128e-09
3.28977e-10
-1.21908e-09
-6.79769e-10
-1.42752e-09
4.11466e-09
3.50539e-09
-5.11362e-10
-2.5392e-09
-1.78717e-10
-5.71247e-09
-5.30634e-10
6.53701e-09
1.92977e-09
1.22407e-09
4.79823e-09
4.37351e-09
-6.85349e-10
2.6582e-09
9.18737e-09
7.59339e-09
-3.79992e-09
4.75712e-10
5.97728e-09
3.6403e-09
5.13277e-09
1.45845e-09
-2.63613e-09
-4.14399e-09
-3.36938e-09
-3.74911e-09
9.01862e-10
7.17039e-09
7.68467e-09
3.49013e-09
-9.31501e-11
-1.86477e-09
-3.25027e-10
-3.24104e-09
-5.25385e-09
3.07734e-09
3.46887e-09
7.07635e-09
8.832e-09
5.67732e-09
1.89125e-09
1.70081e-09
-2.9028e-09
-9.64003e-09
-9.38369e-10
5.70357e-09
-2.32498e-09
-4.75181e-09
3.63727e-09
5.92114e-09
1.46497e-09
-4.85712e-11
1.72268e-09
8.85107e-10
-7.7502e-11
8.48752e-11
1.05579e-09
2.41958e-10
-4.71745e-09
-3.65875e-09
2.17007e-09
1.99511e-09
-3.03829e-10
-2.25634e-09
-3.57207e-09
-5.3353e-09
-3.05429e-09
-1.12173e-09
1.66538e-09
4.66945e-09
6.46938e-09
3.35909e-09
1.97594e-09
-1.61811e-09
-6.56008e-09
-4.11829e-09
1.58596e-09
-8.68465e-10
-6.3121e-09
-2.67636e-09
4.27185e-09
4.67421e-09
1.16264e-09
-1.98675e-09
2.08076e-10
-7.91971e-10
-1.91196e-09
-4.55482e-09
-1.46685e-09
-1.31899e-09
-4.60461e-09
4.968e-10
6.54379e-09
4.67095e-09
-3.18552e-09
-7.59812e-09
-6.29608e-10
4.38539e-09
-5.62724e-11
-3.56545e-09
-7.97736e-10
-4.50311e-09
-1.41909e-08
-9.85977e-09
1.06485e-08
1.47741e-08
1.02717e-08
5.87345e-09
9.99077e-10
2.23007e-11
4.76932e-09
5.25156e-09
3.3217e-09
6.20687e-10
-7.50447e-11
-6.15155e-10
-1.80439e-09
-3.94813e-09
-3.30173e-09
1.48251e-09
3.48413e-09
1.95969e-10
-4.04365e-09
8.49742e-10
-2.35512e-09
-3.98281e-09
-5.01654e-09
5.10615e-10
9.13119e-10
-5.9146e-10
3.11897e-09
4.97579e-09
2.3823e-09
6.22685e-10
-2.03494e-11
4.52073e-10
1.06285e-09
1.66637e-09
-5.49864e-10
-1.43074e-09
1.96999e-09
1.58299e-09
-9.58382e-10
-9.09246e-10
-3.84401e-09
-7.91681e-09
-6.46083e-09
3.19149e-09
1.31972e-08
7.06202e-09
8.08179e-10
4.68838e-09
5.71168e-09
5.27239e-09
5.0686e-09
2.08752e-09
-7.62452e-10
-3.17676e-09
-3.98215e-09
-2.39784e-09
-1.20057e-09
-2.62685e-10
8.01774e-10
-4.65648e-10
-9.7721e-10
1.21608e-09
1.46049e-09
-1.34305e-09
6.01645e-11
-1.99516e-09
-4.27878e-09
-5.97028e-10
7.25268e-10
9.882e-10
4.29775e-09
3.86006e-09
1.98438e-10
1.10022e-09
2.47513e-09
-8.54608e-10
-1.56481e-09
2.35963e-12
2.99559e-10
-1.34959e-09
-2.73921e-09
-5.40716e-10
1.39918e-09
1.22753e-09
-1.50875e-09
-2.08185e-09
6.04212e-10
-1.75293e-09
-4.00527e-09
-5.26368e-09
-2.76712e-09
3.16579e-09
4.76514e-09
1.48835e-09
-1.7001e-09
-2.14396e-09
-2.34974e-09
-2.92436e-09
-2.27481e-09
-8.00632e-10
3.91578e-09
3.0621e-09
-1.80642e-09
-7.29399e-10
-1.46003e-09
2.13089e-09
3.87953e-09
4.18399e-10
5.96749e-10
-7.98049e-10
7.9418e-11
8.42292e-10
1.51507e-10
1.23459e-09
2.67308e-09
1.17982e-09
-1.6687e-09
1.55589e-10
3.4875e-09
-5.08977e-10
-4.02025e-09
-5.15997e-09
-4.09593e-09
-3.81409e-09
-6.61358e-09
-1.91092e-09
3.07696e-09
1.19452e-09
1.81844e-09
4.26604e-09
2.76809e-10
-1.96235e-09
-6.21935e-10
5.79269e-10
-3.25665e-10
-2.68047e-10
-9.39596e-10
-3.25105e-09
-4.22466e-09
-3.70987e-09
5.68333e-10
-1.78097e-09
-1.93384e-09
1.48875e-09
4.47882e-09
5.06664e-09
-3.57465e-10
5.38135e-10
5.1981e-10
1.8059e-09
1.61858e-09
9.7536e-10
-1.4544e-09
2.40044e-11
4.79039e-09
4.56367e-09
8.97946e-10
2.23011e-10
4.05301e-10
-8.94104e-10
8.46085e-10
2.53064e-09
6.06311e-10
-3.29975e-09
-2.456e-09
1.6997e-09
1.02933e-09
-1.34352e-10
3.26164e-10
1.82292e-09
2.7649e-09
-1.10334e-09
-2.83553e-09
-3.16738e-09
-1.21107e-09
3.00552e-09
5.28623e-09
3.94475e-09
7.37284e-10
-4.78508e-10
-8.06186e-10
-2.3387e-09
-4.63834e-09
-4.62819e-09
1.61061e-11
-1.5852e-09
-1.52674e-09
4.97011e-09
5.46303e-09
3.72077e-09
2.06408e-09
6.64164e-10
2.69199e-09
-1.09342e-09
-4.65951e-09
-7.03099e-10
-6.8998e-10
2.41213e-09
7.18917e-09
7.25318e-09
4.39088e-09
2.07332e-09
-1.27156e-09
-2.35519e-09
3.55488e-10
-7.96822e-10
-2.67432e-09
-4.61765e-09
-2.94209e-09
3.89524e-09
3.49816e-09
1.28828e-09
7.73281e-09
2.80324e-09
-2.33618e-09
-5.87118e-10
-6.4169e-10
-1.24405e-09
3.54274e-10
-1.31434e-09
-1.6088e-09
-4.04973e-10
-2.80749e-10
-1.00819e-09
-1.30074e-09
-4.17076e-10
-5.21224e-10
-3.88649e-10
6.6292e-10
-1.02407e-09
3.91576e-10
3.01735e-09
-1.51956e-10
2.65218e-10
-2.41649e-09
-4.01515e-09
-1.79922e-10
-3.68121e-09
-4.04547e-09
1.32577e-10
2.97244e-10
1.56893e-09
1.84544e-09
1.74521e-09
8.75324e-10
7.4258e-10
9.9856e-10
7.26287e-10
-1.18965e-09
-1.68533e-09
-1.68755e-09
-2.30557e-09
-6.06158e-10
3.99944e-10
-4.56531e-10
-3.31252e-09
-2.36059e-09
-3.8411e-09
-4.30636e-09
-5.58853e-10
2.58338e-09
3.28255e-09
1.99122e-09
4.76121e-10
9.67038e-11
-1.8563e-09
-4.48756e-09
-3.3498e-09
-2.22445e-09
4.97973e-10
5.88372e-09
4.92838e-09
2.30821e-09
1.96232e-09
1.42626e-09
4.8934e-10
-1.58783e-10
-2.28265e-09
-3.61518e-09
-2.19034e-09
-6.83274e-10
3.97863e-10
2.29505e-09
5.49994e-10
-8.75075e-12
-2.57562e-09
-1.42009e-09
-2.65006e-09
-3.47541e-09
-4.20286e-09
-3.67928e-09
3.49187e-10
3.35725e-09
3.34935e-09
-3.93159e-10
-2.38433e-09
-2.32447e-09
-1.88409e-09
2.34943e-09
1.3303e-09
-2.69613e-09
-1.21464e-09
2.35732e-09
5.94943e-10
-1.72898e-09
-2.04188e-09
-2.42864e-09
9.27884e-10
2.08055e-09
1.34459e-09
4.89935e-10
4.42988e-11
2.18173e-10
4.13502e-10
4.47122e-09
4.2958e-09
9.19856e-10
-1.3604e-10
5.63063e-10
2.83053e-09
4.23172e-09
2.20891e-09
2.20563e-09
3.96525e-09
1.96489e-09
-5.84444e-12
5.11828e-10
2.61389e-09
6.89014e-09
-1.14008e-10
-6.76016e-09
8.38626e-09
2.71521e-08
1.33881e-08
-9.1973e-09
-3.01519e-10
3.86244e-08
3.89855e-08
2.7262e-08
1.20452e-08
-8.86916e-10
-1.63111e-08
-5.0375e-09
7.48026e-09
1.965e-08
2.76059e-08
2.56944e-08
9.83587e-10
-1.98346e-08
-8.56693e-09
-1.8594e-09
-6.09663e-10
1.7477e-09
2.04513e-08
4.92123e-08
2.58428e-08
6.30941e-10
9.06368e-09
1.36773e-08
6.8842e-10
-4.18468e-09
-1.15484e-08
-1.93442e-08
-5.77663e-10
1.86415e-08
1.73324e-08
8.50388e-09
6.99724e-09
-6.69768e-09
-1.82107e-08
-2.48764e-08
-1.58535e-09
-2.39306e-08
1.47273e-08
4.24934e-09
-1.55569e-08
1.16812e-08
2.29887e-08
1.68461e-08
1.11795e-08
2.74841e-08
4.2582e-08
6.19407e-08
6.58198e-08
2.51829e-08
-7.90675e-09
-9.56112e-09
-8.71379e-09
-2.07991e-09
6.68823e-09
7.47069e-09
-9.99545e-09
-1.55349e-08
-6.00967e-09
6.35037e-09
4.07735e-09
-1.87068e-10
8.32547e-10
-3.93923e-09
-1.105e-08
-1.40783e-08
-1.58757e-08
-1.61521e-08
-1.3377e-08
6.68091e-09
6.52281e-09
-2.91591e-09
5.89947e-09
4.90966e-09
-5.00432e-09
-1.95289e-08
-2.71053e-08
-5.81098e-09
2.22211e-08
3.14897e-09
-3.56589e-08
-9.35804e-09
2.95383e-09
5.69998e-09
-1.42972e-08
2.18423e-09
2.38187e-08
2.83106e-08
1.2386e-08
5.75795e-09
1.26581e-08
2.21666e-09
-1.35167e-08
-1.73707e-08
1.06622e-08
2.07603e-08
1.64061e-08
5.88806e-09
-1.14235e-08
-1.48589e-08
1.04384e-08
2.22549e-08
3.74461e-09
-5.61085e-09
1.28243e-09
7.34289e-09
-1.29497e-09
-1.88199e-08
-1.44621e-08
1.32614e-09
-3.49901e-10
-2.071e-09
-5.45154e-09
-1.80664e-09
4.60453e-09
7.79828e-10
-1.51801e-08
-2.68247e-08
-1.23586e-08
1.94895e-09
-1.42154e-08
-6.58889e-10
2.26446e-08
4.15844e-08
2.18283e-08
3.6116e-08
1.50043e-08
8.13267e-09
1.06883e-09
-8.66464e-09
-1.35912e-08
-6.62382e-09
-4.64836e-09
-3.32987e-09
2.52579e-09
-2.39084e-08
-4.35056e-08
-3.35058e-08
-2.19539e-09
1.65748e-08
2.24779e-08
1.64739e-08
2.94239e-09
2.22791e-09
2.20742e-08
1.54918e-08
-1.19328e-08
-1.26104e-08
1.0862e-08
2.92548e-08
2.60222e-08
2.08383e-08
1.74258e-08
7.9554e-09
5.53616e-10
-1.50468e-09
2.34896e-09
-1.271e-09
-1.77916e-08
-7.34156e-09
9.05402e-09
-2.68105e-09
-6.42092e-09
3.10994e-08
3.1366e-08
-8.24227e-09
-2.48191e-08
1.27568e-08
4.77837e-08
2.02008e-08
1.36297e-08
1.36687e-09
-2.59929e-09
-2.5655e-09
-1.47841e-09
1.96738e-11
8.99667e-09
3.60454e-08
4.01198e-08
1.65791e-08
1.4834e-09
5.23013e-09
1.22639e-08
1.99055e-08
1.30358e-08
4.9606e-09
9.41183e-09
1.80081e-08
5.28572e-09
-1.2602e-08
-5.48162e-09
2.118e-08
2.40662e-08
1.04414e-08
-3.10576e-10
-6.59497e-09
1.38533e-08
2.46453e-08
1.00668e-08
-7.68133e-09
-5.58599e-09
6.15038e-09
7.67316e-09
1.24701e-08
1.665e-08
3.50078e-09
2.43937e-09
2.27214e-08
1.83266e-08
5.478e-09
-6.90547e-09
7.22066e-09
2.1354e-08
-7.4096e-09
-3.20227e-09
-1.36745e-08
-1.11183e-08
2.49918e-09
1.12593e-08
5.28311e-09
6.71089e-09
1.58018e-08
2.26838e-08
3.03847e-08
2.94222e-08
2.71878e-08
1.80854e-08
4.36685e-09
-4.53808e-10
-3.05308e-09
-4.56238e-09
1.90278e-09
-2.31108e-09
-1.05744e-09
1.0088e-08
1.93807e-08
1.69664e-08
1.29772e-09
-1.39944e-08
-1.53539e-08
5.79318e-09
1.31125e-08
4.4623e-09
-3.3632e-09
-3.3082e-09
-3.54182e-09
-6.04262e-10
-7.33687e-09
-9.08281e-09
1.1784e-08
9.52974e-09
-7.94015e-09
-6.43192e-09
2.81101e-08
4.05568e-08
6.34792e-09
-1.7781e-08
-2.10072e-08
-2.83834e-08
-1.83123e-08
-3.57005e-09
9.91127e-09
1.40579e-08
2.20589e-09
-4.40233e-09
5.61318e-09
1.99338e-08
3.58752e-08
3.58806e-08
1.42177e-08
-8.93924e-10
-3.20966e-10
-1.19107e-10
-9.81661e-09
-7.68732e-09
2.43247e-09
6.63873e-09
1.57192e-08
1.23339e-08
-3.70168e-09
-6.3042e-09
7.24953e-10
7.76532e-09
4.09287e-09
-2.71655e-09
-1.11882e-08
-1.69247e-08
-9.54302e-09
-2.02226e-09
-5.59865e-09
-2.10104e-08
-2.75043e-08
-1.20465e-08
1.74057e-08
1.19088e-08
5.22696e-10
8.02507e-09
1.71195e-08
1.08042e-08
2.32716e-11
-7.17817e-09
-1.14236e-08
-3.71245e-09
-3.83952e-09
-7.57669e-09
1.4455e-08
1.71207e-08
3.3181e-09
1.98186e-09
8.77977e-10
-2.70402e-09
-5.97765e-10
2.10291e-09
-4.4104e-09
-1.27336e-08
-1.47012e-08
-1.49484e-08
-1.29477e-08
-4.06941e-09
-3.49008e-09
-3.40566e-09
-1.83383e-09
2.46228e-10
-2.87502e-09
-1.63276e-08
-1.7133e-08
-1.06707e-08
-5.92967e-09
5.24146e-09
9.22343e-09
-2.38902e-09
-9.02673e-09
-1.47048e-08
-4.38823e-09
2.84902e-08
4.17932e-08
2.42259e-08
7.70346e-09
-6.08274e-10
-3.82291e-09
-3.69113e-09
-5.57905e-09
-1.3796e-08
-8.63375e-09
-3.39936e-09
-4.79085e-09
5.30232e-09
1.68333e-08
1.96207e-08
8.58487e-09
-9.43473e-09
-1.29051e-08
-1.43614e-08
-4.37491e-11
9.18648e-09
-8.97609e-09
-1.89144e-08
-7.34332e-09
-4.56751e-10
-2.14379e-09
-5.78827e-09
1.45894e-10
4.12508e-09
-1.24253e-09
-3.18229e-09
-1.23172e-08
-1.92919e-08
-1.44224e-08
-7.80401e-09
-8.61922e-09
-5.52602e-09
1.02829e-08
1.15432e-08
6.14459e-09
1.5922e-08
2.56332e-08
6.91397e-09
-5.93037e-10
1.99658e-08
2.26637e-08
1.13265e-09
-9.04875e-09
-6.7378e-09
-4.71635e-09
3.64726e-09
6.82578e-09
-2.61919e-09
-2.58342e-09
-6.18233e-10
-1.21141e-08
-6.01735e-09
-5.28523e-09
-1.32849e-08
-1.60941e-08
-2.42091e-08
-1.21624e-08
-1.19004e-08
-6.97002e-09
1.48809e-08
1.97039e-08
8.10377e-09
5.3594e-09
1.43468e-09
2.7567e-09
1.60903e-08
2.5716e-08
2.13465e-08
4.88262e-09
-7.62973e-09
-1.46783e-09
-3.90824e-09
-7.56672e-09
2.12579e-09
7.06827e-09
4.78552e-09
-1.76193e-09
-1.29138e-08
-1.47959e-08
2.47575e-09
1.00498e-08
1.46701e-08
1.26699e-08
-1.54924e-09
-1.29698e-08
-8.30578e-09
-8.44815e-09
-6.98234e-09
-5.54649e-09
-8.49052e-09
-8.59241e-09