/*--------------------------------*- C++ -*----------------------------------*\
  =========                 |
  \\      /  F ield         | OpenFOAM: The Open Source CFD Toolbox
   \\    /   O peration     | Website:  https://openfoam.org
    \\  /    A nd           | Version:  6
     \\/     M anipulation  |
\*---------------------------------------------------------------------------*/
FoamFile
{
    version     2.0;
    format      ascii;
    class       volScalarField;
    location    "0";
    object      p;
}
// * * * * * * * * * * * * * * * * * * * * * * * * * * * * * * * * * * * * * //

dimensions      [0 2 -2 0 0 0 0];

internalField   nonuniform List<scalar> 
125840
(
-0.0086182
-0.00257265
-0.0767466
-0.106142
-0.0721448
-0.137661
-0.136817
-0.0670162
-0.0317971
-0.0165055
-0.0233498
0.0457866
-0.00291708
-0.115048
-0.0924229
-0.0964203
-0.127405
-0.110208
-0.0303207
-0.0315444
-0.166495
-0.230854
-0.142104
-0.0226691
-0.0471145
-0.111976
0.0285703
0.131875
0.0160696
-0.0339899
-0.035215
-0.127664
-0.162827
-0.139601
-0.104581
-0.0937779
-0.100789
-0.0840701
-0.0363422
0.0488383
-0.0733365
-0.210949
-0.166739
-0.0848141
-0.115358
0.0280636
0.00859388
-0.134392
-0.125506
-0.137207
-0.101623
-0.0552756
-0.0524894
-0.063547
-0.0604804
0.185962
0.128692
-0.0515899
-0.00831694
-0.0470951
-0.136538
-0.133007
-0.0853211
-0.0925131
-0.142047
-0.194265
-0.0997255
0.0268416
0.00727215
-0.0907417
-0.0646435
0.00886452
-0.0396448
-0.0747355
-0.0980784
-0.167563
-0.13403
-0.100768
-0.0547895
0.00916646
-0.0777427
-0.0969626
-0.0283533
-0.0721621
-0.248258
-0.166953
-0.0557299
-0.12677
-0.0675207
-0.0264239
-0.00695932
-0.0861422
-0.164957
-0.166318
-0.0208698
0.0246228
-0.174351
-0.307043
-0.247798
-0.0753217
-0.14634
-0.111639
0.0558494
0.0438275
-0.0399849
-0.124054
-0.194559
-0.167521
-0.078101
-0.114855
-0.110854
-0.0215621
0.0064526
-0.0592311
-0.0898835
-0.0601429
-0.0581065
-0.0575551
-0.0684039
-0.146126
-0.150613
-0.0983283
-0.0391301
-0.0313527
-0.125548
-0.116289
-0.0493062
-0.106366
-0.185495
-0.0991561
-0.00372923
-0.0100229
-0.0110402
0.00289175
-0.0345121
-0.0521797
-0.108617
-0.190261
-0.0746969
-0.0219386
-0.133738
-0.161023
-0.110377
-0.0986951
-0.205992
-0.142517
-0.00319013
0.0390353
0.00719902
-0.117828
-0.202813
-0.106815
-0.0083819
-0.126403
-0.186354
-0.00910006
0.0802993
-0.0416009
-0.0560888
0.0256573
-0.0273856
-0.0586236
-0.083471
-0.145411
-0.133944
-0.122045
-0.0525797
0.00600497
-0.10069
-0.137396
-0.0281047
-0.0254043
-0.156301
-0.148245
-0.0741586
-0.0365105
-0.101596
0.00151675
0.000984569
-0.0728942
-0.123296
-0.127114
-0.0981619
-0.146829
-0.122302
-0.0402999
0.0152383
0.00751392
-0.0718439
-0.053547
0.0388104
0.0504567
-0.0400569
-0.117635
-0.134821
-0.118169
-0.0853878
-0.128827
-0.111853
0.0549565
0.0745188
-0.0542811
-0.105929
-0.0627361
-0.0418439
-0.0277363
-0.0844972
-0.166256
-0.151569
-0.123543
-0.0422004
0.0358136
-0.0613483
-0.0836365
-0.00378958
-0.0353493
-0.165587
-0.107063
-0.0474129
-0.108032
-0.136563
-0.0368338
-0.066629
-0.132432
-0.126184
-0.0734614
-0.0936878
-0.128023
-0.122084
-0.117634
-0.0180542
0.043179
-0.003452
-0.00918832
0.00695971
0.0040786
-0.0488559
-0.140842
-0.180535
-0.168204
-0.0903575
-0.0900623
-0.126369
0.00981041
0.0740275
-0.0142597
-0.0825356
-0.0785025
-0.0827949
-0.0904846
-0.0864963
-0.116374
-0.128966
-0.0951051
-0.0415903
-0.0140781
-0.0263419
-0.0341479
-0.0641931
-0.103861
-0.105361
0.0117249
0.0181255
-0.137486
-0.169052
-0.157921
-0.100447
-0.0999307
-0.072337
-0.00919102
-0.097363
-0.192347
-0.179324
-0.154167
-0.0504002
0.0652011
0.0405058
-0.0184117
-0.0155231
-0.00254407
-0.0971473
-0.192479
-0.180921
-0.170566
-0.0852003
-0.0486476
-0.116514
-0.0297177
0.0467727
0.00771354
-0.0192647
-0.0265288
-0.0993196
-0.134548
-0.102092
-0.132993
-0.174885
-0.129739
-0.0361405
0.00186434
-0.00559172
-0.0296106
-0.0716163
-0.0783561
-0.0943147
-0.0706046
-0.00905742
-0.0770833
-0.130034
-0.0996898
-0.0974287
-0.17296
-0.0885192
0.0155878
-0.0908561
-0.176912
-0.163375
-0.168218
-0.105567
-0.0190949
-0.00501203
-0.0552816
-0.0794123
-0.0743971
-0.134878
-0.155445
-0.151912
-0.199389
-0.106984
-0.0160542
-0.0841119
-0.0559314
-0.00332544
-0.0496253
-0.0846054
-0.081197
-0.102808
-0.130284
-0.0842498
-0.137912
-0.221425
-0.0722588
0.128884
0.146905
0.0247524
-0.0438375
-0.110819
-0.108124
-0.0544005
-0.0494611
-0.0455392
-0.0820788
-0.118435
-0.0995999
-0.0793147
-0.0583672
0.00616865
0.0170357
-0.0857087
-0.175123
-0.160474
-0.129369
-0.119546
-0.0996679
-0.0481391
-0.0434907
-0.0804514
-0.129946
-0.145019
-0.0964962
-0.105868
-0.169787
-0.068857
-0.0435892
-0.172303
-0.0877843
-0.00428847
-0.0534217
-0.0351325
-0.0778885
-0.147546
-0.111592
0.0115821
-0.00140778
-0.180022
-0.0847146
0.0885114
0.0633806
-0.0121305
-0.0530875
-0.135846
-0.114046
-0.0171539
-0.0455697
-0.0791081
-0.0902815
-0.124566
-0.0886991
-0.0516749
-0.0868343
-0.100905
-0.0560384
-0.063793
-0.12105
-0.131505
-0.112767
-0.0937389
-0.0733195
-0.036429
-0.0513187
-0.0844535
-0.101427
-0.0868936
-0.0437302
-0.0809656
-0.183292
-0.0774278
-0.0198438
-0.153473
-0.0802424
0.0337773
-0.0217288
-0.073653
-0.126532
-0.139097
-0.0481862
0.0232237
-0.0126415
-0.101865
-0.107267
-0.0508286
-0.040267
-0.0486324
-0.0383034
-0.104088
-0.135439
-0.084975
-0.0893313
-0.0745257
-0.0981325
-0.0760272
-0.0342408
-0.112239
-0.179095
-0.119136
0.0283915
0.0418387
-0.0297387
-0.0527091
-0.0865211
-0.108106
-0.102486
-0.0599325
-0.0368272
-0.0512291
-0.0971129
-0.109342
-0.107913
-0.153485
-0.20602
-0.0886635
0.00401361
-0.0932879
-0.0636808
0.00235883
-0.0469187
-0.0635497
-0.13816
-0.159477
-0.0785482
-0.0670487
-0.10596
-0.0522892
0.000474904
0.0118129
-0.00253052
-0.0214306
-0.0184421
-0.0844876
-0.128156
-0.0695882
-0.0504672
-0.0929432
-0.157759
-0.0141135
0.101444
-0.03361
-0.140285
-0.0944693
0.0596628
0.0644951
-0.00567117
0.00946272
-0.0214651
-0.0936029
-0.101154
-0.091701
-0.0655975
-0.0446655
-0.0615712
-0.101694
-0.185602
-0.215519
-0.122015
-0.0322428
-0.0602231
-0.118249
-0.0468111
-0.00213595
-0.116033
-0.17454
-0.091601
0.00633395
0.00766888
-0.095684
-0.149797
-0.121238
-0.0709267
-0.0412212
-0.0236407
-0.0140058
0.00389961
-0.0555979
-0.112478
-0.0724528
-0.0389251
-0.0800619
-0.147908
-0.0426328
-0.0247407
-0.155623
-0.175605
-0.169831
-0.112801
-0.103509
-0.0968625
-0.0147205
-0.020985
-0.0939757
-0.0911484
-0.0589975
-0.0625212
-0.0746622
-0.0708771
-0.0959193
-0.191026
-0.184641
-0.0412668
0.015676
-0.0611775
-0.0888487
0.0188895
0.0168381
-0.149287
-0.203821
-0.122326
0.00339653
0.00477265
-0.0785121
-0.0759564
-0.116032
-0.229482
-0.232166
-0.107628
-0.0589757
-0.0342275
-0.0241197
-0.0645082
-0.0764705
-0.103156
-0.139397
-0.113948
-0.0763435
-0.0921706
-0.223283
-0.109669
-0.0073445
0.00902898
-0.0148958
-0.0614386
-0.0635807
-0.0508304
-0.00936955
-0.0537835
-0.124875
-0.102525
-0.0545779
-0.088361
-0.139232
-0.171045
-0.171876
-0.0832756
-0.0498614
-0.0732512
-0.0675135
-0.0112027
-0.075538
-0.128044
-0.0516714
-0.074806
-0.10804
-0.0974657
-0.0825394
-0.048551
-0.0754718
-0.152488
-0.153503
-0.0947109
-0.0962865
-0.110477
-0.12031
-0.119203
-0.101556
-0.0898872
-0.148167
-0.18441
-0.0782807
-0.117566
-0.162202
-0.061519
-0.0703161
-0.0279026
0.0463763
-0.0325765
-0.120612
-0.115006
-0.0279997
-0.0813755
-0.181431
-0.0947092
-0.0230768
-0.0629564
-0.11742
-0.140999
-0.159936
-0.129481
-0.0785699
-0.0939875
-0.106591
-0.128499
-0.174352
-0.0417227
0.0837794
-0.0179094
-0.122085
-0.115824
-0.0664958
-0.0624218
-0.110043
-0.124769
-0.0764825
-0.0213831
-0.0553724
-0.0766613
-0.0799476
-0.100467
-0.113404
-0.0970424
-0.0990491
-0.129609
-0.0472582
-0.131456
-0.17504
-0.0585249
0.0294875
0.0564493
-0.0295133
-0.111755
-0.110275
-0.0194681
0.073319
-0.0935336
-0.193475
0.0401943
0.0923746
-0.0360483
-0.125522
-0.151047
-0.107079
-0.0715641
-0.0823462
-0.11909
-0.128022
-0.152711
-0.157374
-0.0157699
0.0518394
-0.0738588
-0.105572
-0.0752687
-0.0986364
-0.0872023
-0.0995238
-0.182493
-0.124442
-0.0246981
-0.0543701
-0.0620814
-0.0630688
-0.0910039
-0.102242
-0.103865
-0.105571
-0.0880468
-0.0691421
-0.0748272
-0.14819
-0.125148
-0.0263046
0.022816
-0.0453534
-0.10005
-0.104363
-0.0637379
-0.015582
-0.0827743
-0.107744
-0.0538239
-0.073427
-0.0845237
-0.0932576
-0.111337
-0.0708755
-0.0595276
-0.0901777
-0.0981292
-0.130475
-0.21611
-0.24356
-0.0663617
0.0282259
-0.0685929
-0.0801831
-0.0661134
-0.0818332
-0.0417666
-0.0684547
-0.133628
-0.0563856
-0.00570579
-0.0410903
-0.00826243
-0.0218884
-0.0642168
-0.0685436
-0.086507
-0.12006
-0.138759
0.0427926
0.0120657
-0.135864
-0.165667
-0.0786125
0.0176481
0.0247238
-0.0374622
-0.0829747
-0.0843776
-0.0400418
-0.0802466
-0.152753
-0.172191
-0.199162
-0.15248
-0.0627717
-0.0841555
-0.0846907
-0.0560889
-0.088477
-0.0942807
-0.0890498
-0.178639
-0.238262
-0.0548544
0.0865656
-0.0288564
-0.0788507
-0.0759167
-0.0975035
-0.0834544
-0.0943086
-0.129966
-0.0849684
-0.0192361
-0.000255503
0.104818
0.101764
-0.0150065
-0.0674182
-0.134064
-0.148083
-0.0739671
0.203696
0.113607
-0.0784177
-0.120729
-0.0537239
0.00373923
-0.0150572
-0.0317272
-0.0578182
-0.0757665
-0.0424235
-0.0919414
-0.135079
-0.0837033
-0.0241567
-0.0262663
-0.0398324
-0.098525
-0.112623
-0.0573024
-0.0952056
-0.0972146
-0.0763587
-0.154647
-0.240806
-0.100272
0.0329671
-0.0951101
-0.136746
-0.0547029
-0.0401682
-0.0831658
-0.0922757
-0.0996596
-0.108594
-0.0773054
-0.03141
0.0400963
-0.0154862
-0.0848183
-0.0798071
-0.133344
-0.0813749
0.0841988
0.12985
0.129162
-0.0869269
-0.128216
-0.0667894
-0.0309114
-0.0348755
-0.0454701
-0.0615697
-0.0766676
-0.0453274
-0.0927767
-0.126176
-0.0480659
-0.00574172
-0.019314
-0.0112113
-0.0559341
-0.0999352
-0.0834534
-0.117578
-0.0961789
-0.0683351
-0.103248
-0.17532
-0.152618
-0.122055
-0.139384
-0.172621
-0.149569
-0.00756134
-0.0226842
-0.120054
-0.0851081
-0.0197963
0.00299698
-0.000728307
0.0241676
-0.0407461
-0.106564
-0.123937
-0.17182
-0.132689
-0.0565685
-0.0146427
0.0126196
-0.154028
-0.141776
-0.0388291
0.0121094
0.0206364
-0.0251551
-0.0665084
-0.0404841
-0.0216442
-0.0800295
-0.136203
-0.148128
-0.0985612
-0.0560647
-0.0410057
-0.0568705
-0.0884487
-0.0789216
-0.088095
-0.0852452
-0.0751849
-0.0949932
-0.140868
-0.191796
-0.203068
-0.082442
-0.0668238
-0.174854
-0.119518
-0.0598795
-0.0979809
-0.160129
-0.183982
-0.0592277
0.115756
0.166411
0.0453017
-0.0882167
-0.144092
-0.208315
-0.262367
-0.219994
-0.0596664
-0.0549485
-0.161678
-0.107568
-0.0382159
-0.0179152
-0.0262187
-0.0342887
0.0213184
0.0770681
0.0594061
-0.0236525
-0.091938
-0.206982
-0.165313
-0.0227351
-0.00932254
-0.0590412
-0.0949416
-0.0726166
-0.0794325
-0.088192
-0.0702822
-0.0733674
-0.135541
-0.198398
-0.192424
-0.0770932
-0.0324501
-0.058113
-0.0373836
-0.0367114
-0.0780369
-0.156399
-0.220438
-0.126998
0.0146082
0.0363373
0.00400585
-0.0602159
-0.113378
-0.128438
-0.170148
-0.18425
-0.0555401
-0.0432988
-0.158176
-0.119298
-0.0710337
-0.0737123
-0.108476
-0.098803
0.0420328
0.0568498
-0.0610762
-0.102749
-0.0757683
-0.149272
-0.20383
-0.113429
-0.0467634
-0.0682924
-0.082676
-0.0855832
-0.130123
-0.112
-0.0820518
-0.0824436
-0.0806947
-0.141301
-0.177813
-0.0463895
0.00883456
-0.0367397
-0.0243734
0.00289662
0.0436573
-0.0293349
-0.148039
-0.103136
-0.0518513
-0.0601304
-0.0279695
-0.0385526
-0.0825468
-0.0870285
-0.129907
-0.167926
-0.057355
-0.0591627
-0.143669
-0.116557
-0.0851257
-0.022597
-0.0407005
-0.124645
-0.0419292
0.000574012
-0.113844
-0.122666
-0.0393992
-0.070998
-0.189185
-0.172311
-0.118797
-0.0928733
-0.0409245
-0.082531
-0.180526
-0.156516
-0.115502
-0.0916883
-0.058977
-0.101795
-0.156966
-0.0481256
0.0369292
-0.0433007
-0.0991044
-0.0362751
0.072934
0.014321
-0.146412
-0.116659
-0.0356987
-0.0176246
0.0144424
-0.0018956
-0.0838903
-0.11532
-0.125498
-0.143594
-0.0841799
-0.0925299
-0.0970048
-0.00530486
-0.0106316
0.00363691
-0.0376395
-0.114678
-0.0301724
-0.0223679
-0.11522
-0.0944625
-0.050547
-0.0808238
-0.138524
-0.0460311
-0.0203927
-0.0651432
-0.0529163
-0.107472
-0.189459
-0.219738
-0.172997
-0.0912198
-0.0679424
-0.0865821
-0.0865402
-0.0185895
0.00863078
-0.0535744
-0.0981367
-0.0674726
0.0145432
-0.0219298
-0.0924801
-0.0874298
-0.0764176
-0.068356
0.00872538
0.0261384
-0.0611741
-0.10343
-0.145674
-0.18412
-0.125048
-0.134324
-0.0966513
-0.0248814
-0.0256774
0.0867608
-0.00571274
-0.147006
0.0379067
0.0362699
-0.186283
-0.206937
-0.0544357
-0.0124798
-0.0698222
-0.0123904
-0.041345
-0.0744873
-0.0410476
-0.0797281
-0.131277
-0.156581
-0.144244
-0.111834
-0.110811
-0.113751
-0.129552
-0.0964009
-0.0352224
-0.0414281
-0.065411
-0.119391
-0.149466
-0.108023
-0.00983665
-0.0278247
-0.120955
-0.0902936
0.0387403
-0.00287067
-0.139816
-0.123939
-0.0867747
-0.154068
-0.106358
-0.11288
-0.124812
-0.0922634
-0.10997
-0.0700282
-0.076083
-0.0908448
-0.00848034
-0.0190497
-0.110104
-0.153213
-0.067583
-0.0303827
-0.0961725
-0.0978519
-0.105468
-0.103325
-0.0814243
-0.0640663
-0.063674
-0.129455
-0.13654
-0.0649477
-0.0929445
-0.0901216
-0.0926244
-0.111909
-0.028259
-0.0144693
-0.0576279
-0.0845282
-0.158658
-0.163078
-0.00289823
0.023666
-0.0948689
-0.0681171
-0.00713256
-0.114078
-0.191061
-0.0804077
-0.00570496
-0.104314
0.0114393
0.031029
-0.0724921
-0.0908038
-0.113037
-0.14139
-0.120004
-0.0804148
-0.0103883
-0.0079931
-0.0920295
-0.150213
-0.104777
-0.0832283
-0.1038
-0.0550289
-0.0672695
-0.114064
-0.106559
-0.119257
-0.120064
-0.110672
-0.119064
-0.10138
-0.0954468
-0.0586399
-0.0321936
-0.0675841
-0.0567253
-0.0318134
-0.0500126
-0.0618353
-0.0900442
-0.116061
-0.0174199
0.00958205
-0.0800702
-0.0419077
-0.00858499
-0.152154
-0.196752
-0.0255228
0.0541991
-0.0366949
-0.00180005
-0.0370377
-0.0772466
-0.0162352
-0.0348223
-0.0912425
-0.103223
-0.0893272
0.00769405
0.0279914
-0.120016
-0.186152
-0.0874877
-0.0439825
-0.149057
-0.149199
-0.114895
-0.134691
-0.100309
-0.100122
-0.135563
-0.0781903
-0.0612591
-0.12483
-0.10292
-0.0460412
-0.0882222
-0.112225
-0.0625099
-0.0266195
-0.034256
-0.067236
-0.0935757
-0.128744
-0.0801152
-0.0261683
-0.117586
-0.112764
0.0397757
-0.0187667
-0.177483
-0.138802
-0.0442719
-0.0321894
-0.112826
-0.0641024
-0.0560756
-0.0166743
-0.023942
-0.0672366
-0.131
-0.132813
0.0102802
0.052642
-0.126475
-0.179685
-0.0883759
-0.100273
-0.230484
-0.154418
0.00906943
0.0194481
0.0469717
0.0305632
-0.107392
-0.0834534
-0.00186491
-0.0627339
-0.107386
-0.0701003
-0.0864743
-0.0937824
-0.0496629
-0.0084834
-0.0271622
-0.0641546
-0.0955981
-0.115208
-0.0324428
0.0164644
-0.0751418
-0.153201
-0.0748525
-0.0656868
-0.143231
-0.0997373
-0.0506721
-0.113291
-0.11491
-0.0463832
-0.0816988
-0.0294053
0.0662991
-0.019056
-0.162541
-0.119645
-0.0140087
-0.0238007
-0.10987
-0.153999
-0.145673
-0.219714
-0.218731
-0.116791
-0.0236655
0.0112696
0.0775134
0.0405883
-0.118535
-0.0312268
0.133475
-0.0217759
-0.20841
-0.0817034
0.0330423
-0.0589177
-0.130152
-0.0908711
-0.0383992
-0.0585604
-0.0913668
-0.0385803
0.0918281
0.107507
0.00729815
-0.0716948
-0.0829849
-0.109274
-0.130081
-0.089068
-0.0675666
-0.139358
-0.184408
-0.0984655
0.0143763
0.0417997
-0.0283177
-0.0536268
-0.058332
-0.117643
-0.120169
-0.0812765
-0.123611
-0.18412
-0.182524
-0.233692
-0.249681
-0.214772
-0.228872
-0.214497
-0.105111
-0.0428195
-0.101475
0.0214402
0.196478
0.0730207
-0.11073
-0.114296
-0.0799238
-0.104173
-0.104955
-0.0543055
-0.0406586
-0.0822836
-0.11393
-0.102739
-0.00447478
0.0663077
0.0303207
-0.123151
-0.0833131
-0.0234681
-0.128416
-0.18882
-0.10488
-0.132421
-0.124043
-0.119043
-0.0185829
-0.010111
-0.12753
-0.106054
-0.0137997
-0.0972071
-0.110183
-0.0480286
-0.112292
-0.20417
-0.225621
-0.192571
-0.151777
-0.0595125
-0.0351441
-0.117691
-0.101901
-0.00289581
0.00315653
-0.0569803
-0.0149247
0.0639846
0.0648012
-0.050477
-0.122362
-0.102235
-0.0869704
-0.0193442
-0.0347255
-0.0655579
-0.0244529
-0.089116
-0.0541655
0.0209834
-0.129845
-0.215907
0.0276989
0.139321
-0.101714
-0.229977
-0.0277632
0.0177765
-0.110475
-0.186574
-0.0708056
-0.0163682
-0.136449
-0.13329
-0.0436573
-0.0839863
-0.0960723
-0.0555226
-0.165277
-0.271715
-0.251929
-0.239635
-0.190431
-0.0170278
0.0661597
-0.00908831
-0.0267117
-0.0300194
-0.0770326
-0.117279
0.00488162
0.0695523
-0.048349
-0.0964156
-0.0673775
-0.104781
-0.077727
-0.014176
-0.0528839
-0.0362482
-0.027995
-0.159788
-0.0911077
0.0665426
-0.124595
-0.21864
0.0455106
0.214107
-0.0713995
-0.243101
-0.0564855
0.00559451
-0.0890642
-0.156891
-0.0194241
0.00662705
-0.153482
-0.0937383
-0.011241
-0.135659
-0.124652
-0.00295164
-0.1776
-0.342967
-0.226758
-0.222172
-0.240984
-0.00799812
0.140274
0.0413674
-0.0521306
-0.0580022
-0.084173
-0.157435
-0.0385368
0.122188
0.0134152
-0.13375
-0.174259
-0.152271
-0.0316591
-0.0393163
-0.118914
-0.106556
-0.121383
-0.124386
0.0567002
0.134653
-0.0646759
-0.21386
-0.0147479
0.124779
-0.107767
-0.251558
-0.141218
-0.0390208
-0.0326732
-0.0579472
0.0562188
0.0286875
-0.136895
-0.0565109
-0.0313117
-0.168329
-0.0877101
0.00526426
-0.218418
-0.3027
-0.0729227
-0.0413457
-0.183632
-0.102634
0.0806482
0.0810492
-0.0149938
-0.0803891
-0.0685073
-0.11204
-0.0888149
-0.019326
-0.135778
-0.172046
-0.107659
-0.0979811
-0.127871
-0.131286
-0.0823317
-0.0617344
-0.101011
-0.0298603
0.11459
0.0773514
-0.123791
-0.234013
-0.086746
0.019095
-0.112651
-0.18958
-0.112948
-0.0298788
-0.0162687
-0.0270807
-0.0159491
-0.0580075
-0.11295
-0.0969727
-0.160337
-0.187204
-0.0508832
-0.0345866
-0.231933
-0.231197
-0.0733813
-0.0722429
-0.154121
-0.147271
-0.00381871
0.0700258
-0.0112644
-0.106116
-0.0401064
-0.0515227
-0.136143
-0.117678
-0.0955615
-0.0148219
0.0384522
-0.051109
-0.162485
-0.0802574
0.0556136
0.0664861
-0.0232753
-0.0858699
-0.0227572
-0.0159042
-0.147294
-0.190669
-0.0610573
0.0345809
-0.0680445
-0.177469
-0.157677
-0.0708571
-0.0308067
-0.0164013
-0.0443672
-0.0997717
-0.0918775
-0.0976664
-0.160097
-0.123907
0.0102749
-0.00456117
-0.200005
-0.218831
-0.0980593
-0.116034
-0.156305
-0.12667
-0.041772
0.018893
-0.0223296
-0.090846
-0.0744482
-0.111526
-0.1551
-0.0561128
-0.0615875
-0.207266
-0.154369
-0.0617341
-0.0793278
0.0315436
0.076083
-0.00950486
-0.0823879
-0.131577
-0.104541
-0.109276
-0.19271
-0.157496
-0.0148829
0.0242357
-0.0993933
-0.201092
-0.153552
-0.0723687
0.0218515
0.0139042
-0.0540833
-0.115454
-0.115355
-0.0866217
-0.0809729
-0.0695644
-0.0300963
-0.0599337
-0.166431
-0.154661
-0.109205
-0.166673
-0.131323
-0.076384
-0.0439942
-0.0118239
-0.0370936
-0.100008
-0.0646488
-0.0230063
-0.111486
-0.115394
-0.140205
-0.238945
-0.16257
-0.0876935
-0.0851812
-0.0344432
-0.0522662
-0.0899424
-0.116006
-0.130767
-0.114377
-0.163424
-0.213737
-0.129895
-0.00617342
0.0323629
-0.10536
-0.207127
-0.145008
-0.0494159
-0.0318701
-0.00468412
-0.00979831
-0.0551529
-0.0948474
-0.10268
-0.0673007
-0.0238434
-0.0343799
-0.0656605
-0.100644
-0.115332
-0.140417
-0.233394
-0.206647
-0.130993
-0.0969821
-0.0707078
-0.0403051
-0.133305
-0.0696279
0.0616125
-0.134508
-0.170124
-0.0385781
-0.0630433
-0.0692539
-0.0496902
-0.076579
-0.0639015
-0.0795548
-0.143238
-0.147292
-0.129516
-0.123226
-0.134514
-0.113171
-0.0316597
-0.00818494
0.00302707
-0.0560019
-0.1472
-0.118384
-0.0615291
-0.0157627
-0.0104131
-0.0198007
-0.0291479
-0.0664969
-0.0963872
-0.0712984
-0.0457645
-0.0281224
-0.0134152
-0.0516517
-0.10614
-0.169698
-0.217568
-0.197474
-0.151819
-0.0905438
-0.0682455
-0.0344601
-0.0988934
-0.152206
-0.128691
-0.180696
-0.111781
0.00156951
-0.022827
-0.0530934
-0.0293633
-0.0205291
-0.0382159
-0.0915817
-0.159262
-0.126021
-0.107785
-0.0953002
-0.0431916
-0.0856738
-0.0718213
-0.00711257
-0.0128024
-0.0406163
-0.131607
-0.158207
-0.0688553
-0.0155678
-0.0275578
-0.0494077
-0.0198527
-0.013832
-0.0907027
-0.0786823
-0.0190564
-0.028384
-0.0461237
-0.0801062
-0.124065
-0.16338
-0.127949
-0.142216
-0.108455
0.115412
0.0801813
-0.0587406
-0.117268
-0.152483
-0.105988
-0.0688076
-0.0466066
-0.0293497
-0.0645185
-0.0384136
-0.0160066
-0.0407856
-0.0451931
-0.0687192
-0.117324
-0.10553
-0.0991635
-0.0692415
-0.0400274
-0.112029
-0.113076
-0.0524148
-0.036201
-0.0800187
-0.185111
-0.146947
-0.037302
-0.0150335
-0.044328
-0.12343
-0.11482
-0.0537393
-0.0839654
-0.066078
-0.018452
-0.0515122
-0.0445829
-0.0545632
-0.0801223
-0.104609
-0.129549
-0.133856
-0.121749
-0.0854248
-0.132189
-0.151432
-0.114226
-0.0956467
-0.106775
-0.101232
-0.0429334
-0.0358609
-0.0803394
-0.0434615
0.00549875
-0.0371894
-0.0505112
-0.0433762
-0.0808803
-0.0884138
-0.0762214
-0.037984
-0.0244553
-0.104977
-0.140414
-0.0952808
-0.0467502
-0.095174
-0.168339
-0.110033
-0.0329903
0.00222312
-0.0267704
-0.0833001
-0.114628
-0.103665
-0.143401
-0.112253
-0.0406005
-0.0701934
-0.0566336
-0.0490732
-0.053938
-0.0713148
-0.0957241
-0.0613656
-0.0916084
-0.195903
-0.17514
-0.0581111
-0.0473543
-0.131901
-0.206953
-0.148315
0.0108346
-0.0142367
-0.087039
-0.00215591
0.0557222
0.000164007
-0.0102944
-0.00860251
-0.0964243
-0.132107
-0.0831184
0.00470217
0.00273704
-0.0742461
-0.104232
-0.0217721
0.0406915
-0.0628838
-0.169982
-0.0927793
0.00020354
-0.00892082
-0.00254623
-0.0766922
-0.106456
-0.0724588
-0.137503
-0.136501
-0.0670457
-0.0322326
-0.0169526
-0.0235872
0.0456533
-0.00293914
-0.115018
-0.0924213
-0.0964664
-0.127668
-0.110535
-0.0306001
-0.0315801
-0.166254
-0.230784
-0.14225
-0.022802
-0.0471626
-0.112128
0.0281434
0.131559
0.0160134
-0.034092
-0.0351921
-0.127428
-0.162606
-0.139439
-0.104385
-0.0936386
-0.100838
-0.0841746
-0.0365047
0.0485754
-0.0730815
-0.210405
-0.166428
-0.0849879
-0.11532
0.0277608
0.00848249
-0.134559
-0.12594
-0.137456
-0.101845
-0.0555835
-0.0528639
-0.0637846
-0.0610059
0.184943
0.128232
-0.0515539
-0.0082313
-0.046832
-0.136273
-0.132963
-0.0853513
-0.0924185
-0.14186
-0.194118
-0.0997873
0.0267779
0.00732781
-0.0905113
-0.0643526
0.00900225
-0.0395201
-0.074557
-0.0979218
-0.167516
-0.134127
-0.100831
-0.0549248
0.00904758
-0.0775628
-0.0967711
-0.0282221
-0.0718061
-0.247906
-0.16695
-0.0554956
-0.126289
-0.067369
-0.0264201
-0.00702805
-0.0859387
-0.164552
-0.166361
-0.0213519
0.0246882
-0.173175
-0.305887
-0.247319
-0.0750405
-0.146061
-0.111707
0.0557112
0.043846
-0.0398795
-0.12379
-0.194191
-0.167435
-0.078273
-0.114918
-0.110706
-0.0213121
0.00667499
-0.0589957
-0.0895917
-0.0599501
-0.0580749
-0.0575688
-0.0684215
-0.145954
-0.150435
-0.0984208
-0.0391566
-0.0309872
-0.12514
-0.116186
-0.0491329
-0.106151
-0.185716
-0.0995014
-0.00399409
-0.0100321
-0.0111345
0.00292844
-0.0345041
-0.0522708
-0.10847
-0.189986
-0.0746177
-0.0217534
-0.133252
-0.160547
-0.109954
-0.0982263
-0.205729
-0.142599
-0.00328645
0.0388486
0.00698934
-0.117776
-0.202823
-0.10716
-0.00863203
-0.126302
-0.186294
-0.009327
0.0801316
-0.0416034
-0.0563231
0.0254124
-0.0273995
-0.0585778
-0.0833638
-0.145382
-0.133961
-0.121992
-0.0525831
0.00610374
-0.100543
-0.137577
-0.0283932
-0.02543
-0.15621
-0.14841
-0.0744303
-0.0366555
-0.10172
0.00125145
0.000849456
-0.072851
-0.123195
-0.127168
-0.0982752
-0.146937
-0.122683
-0.0406448
0.015118
0.0074539
-0.0719787
-0.053738
0.0385645
0.0503498
-0.0400675
-0.117816
-0.135053
-0.118173
-0.0853103
-0.128948
-0.112239
0.0545898
0.0745184
-0.0541667
-0.105947
-0.0628049
-0.0420242
-0.0279511
-0.0844629
-0.166182
-0.151631
-0.123662
-0.0424966
0.0355166
-0.061424
-0.0838524
-0.00404273
-0.0352832
-0.165322
-0.106971
-0.0472631
-0.107902
-0.136638
-0.0369932
-0.0665274
-0.132328
-0.126226
-0.0735917
-0.0938186
-0.128307
-0.122371
-0.117852
-0.018395
0.0429017
-0.00363327
-0.00933158
0.00699113
0.00415769
-0.048854
-0.140837
-0.180489
-0.16814
-0.0904146
-0.0901152
-0.126378
0.00970023
0.0740411
-0.0140826
-0.0823833
-0.0784221
-0.082723
-0.0904613
-0.0865994
-0.116516
-0.129078
-0.0951465
-0.0414939
-0.0140423
-0.026493
-0.0342135
-0.0641137
-0.103804
-0.10552
0.0114094
0.0181924
-0.137161
-0.168722
-0.157616
-0.100441
-0.100113
-0.0725775
-0.00929764
-0.0972295
-0.1922
-0.179336
-0.154348
-0.0506947
0.0649397
0.0405057
-0.0183345
-0.0155539
-0.00257318
-0.0969509
-0.192323
-0.18099
-0.1707
-0.0854319
-0.0487345
-0.116403
-0.029751
0.0466334
0.00754377
-0.0194739
-0.0265339
-0.0989995
-0.134299
-0.101983
-0.132939
-0.174757
-0.129456
-0.0358832
0.00193062
-0.00568975
-0.0296228
-0.0715859
-0.0784037
-0.0942623
-0.0705045
-0.00906579
-0.0769744
-0.12995
-0.0997634
-0.0974852
-0.172932
-0.0886427
0.0155937
-0.0906315
-0.176809
-0.163257
-0.167941
-0.105343
-0.0189823
-0.00487166
-0.0550244
-0.0792301
-0.0742983
-0.134738
-0.155411
-0.151874
-0.199262
-0.107064
-0.0163213
-0.0841952
-0.055864
-0.00330463
-0.0495738
-0.0844788
-0.0811561
-0.10275
-0.130155
-0.0841887
-0.137794
-0.221498
-0.0727515
0.128216
0.146552
0.0248221
-0.0437308
-0.110733
-0.108042
-0.0542506
-0.049268
-0.0454461
-0.0820026
-0.118504
-0.0997057
-0.0794595
-0.0586762
0.00604268
0.0171695
-0.085491
-0.174862
-0.160338
-0.129293
-0.119286
-0.0994511
-0.0481209
-0.0434846
-0.080343
-0.129772
-0.144988
-0.0965588
-0.10582
-0.169672
-0.0687728
-0.0433419
-0.172039
-0.0878427
-0.00434632
-0.0534196
-0.0352521
-0.0778847
-0.14752
-0.111755
0.0112197
-0.00148985
-0.17981
-0.084937
0.0882641
0.0634763
-0.0120158
-0.0530132
-0.135776
-0.11417
-0.0173576
-0.0455883
-0.0791051
-0.0903135
-0.124304
-0.0886696
-0.0517418
-0.0865304
-0.100287
-0.0555916
-0.0635918
-0.120981
-0.131587
-0.112919
-0.0938486
-0.0734501
-0.0365754
-0.0513625
-0.0844885
-0.101563
-0.0871467
-0.0439848
-0.0809908
-0.183162
-0.0775064
-0.019814
-0.153315
-0.0804041
0.0335574
-0.0217008
-0.073352
-0.126126
-0.13893
-0.0483896
0.022962
-0.0127393
-0.101546
-0.106649
-0.050354
-0.0399592
-0.0483899
-0.0381802
-0.10398
-0.135301
-0.0848236
-0.0892671
-0.0746283
-0.098048
-0.0760874
-0.0341562
-0.112045
-0.178841
-0.119232
0.0279525
0.0415149
-0.0299154
-0.0528113
-0.0864597
-0.108044
-0.10242
-0.0599607
-0.0368997
-0.0512738
-0.0970872
-0.109331
-0.107811
-0.153204
-0.20575
-0.0887441
0.00383115
-0.0932028
-0.0636005
0.00231181
-0.0470791
-0.063726
-0.137802
-0.159124
-0.0785789
-0.0671414
-0.106291
-0.0528864
5.88143e-05
0.011564
-0.00268389
-0.0214947
-0.0183691
-0.0842797
-0.128049
-0.0696927
-0.0505477
-0.0928317
-0.157705
-0.0146037
0.100959
-0.034221
-0.141074
-0.0950113
0.0593661
0.0642537
-0.00585408
0.00935759
-0.0212934
-0.0934071
-0.10106
-0.0915994
-0.065644
-0.0447554
-0.0616198
-0.101678
-0.18543
-0.21539
-0.122047
-0.0321977
-0.0600101
-0.118102
-0.0468661
-0.00234908
-0.116271
-0.174843
-0.0919575
0.0060907
0.00770993
-0.0954755
-0.14996
-0.121639
-0.0713625
-0.04168
-0.024091
-0.0143583
0.00371718
-0.0556286
-0.112528
-0.0726439
-0.0391284
-0.0801605
-0.148119
-0.0427255
-0.0245364
-0.155293
-0.175352
-0.169116
-0.111978
-0.103027
-0.0968228
-0.014898
-0.0210116
-0.0938038
-0.0911372
-0.0591167
-0.0626817
-0.0747549
-0.0709371
-0.0960911
-0.191178
-0.184921
-0.0416443
0.0154524
-0.0612776
-0.0890186
0.0185895
0.0167828
-0.148886
-0.203304
-0.122326
0.00303057
0.00482825
-0.0783886
-0.0759923
-0.115552
-0.228689
-0.231749
-0.107601
-0.0589652
-0.0342951
-0.0243453
-0.0646086
-0.0764044
-0.10301
-0.139515
-0.114272
-0.0763559
-0.0919621
-0.222928
-0.109644
-0.00742475
0.00914496
-0.0147065
-0.0613426
-0.0635522
-0.0508719
-0.00948961
-0.0537051
-0.124563
-0.102306
-0.0545144
-0.0882422
-0.139213
-0.171092
-0.171952
-0.0833725
-0.0498935
-0.0734137
-0.067711
-0.0113375
-0.0754235
-0.127913
-0.0515251
-0.0744118
-0.107754
-0.09749
-0.0826865
-0.0485547
-0.0752267
-0.15205
-0.153102
-0.0944687
-0.0960505
-0.110181
-0.120061
-0.119044
-0.101422
-0.0897739
-0.147989
-0.184264
-0.0783208
-0.117654
-0.16247
-0.0617705
-0.0702715
-0.0281471
0.0459074
-0.0325805
-0.120281
-0.11467
-0.027907
-0.0813191
-0.181275
-0.0945807
-0.0229785
-0.0629156
-0.117464
-0.140992
-0.159667
-0.129236
-0.0785339
-0.0939371
-0.106525
-0.128351
-0.17434
-0.042124
0.0834516
-0.0177582
-0.121785
-0.115785
-0.0665417
-0.0622779
-0.109987
-0.124909
-0.0766132
-0.0214621
-0.0552758
-0.0765258
-0.0799056
-0.100424
-0.113345
-0.0970397
-0.0990072
-0.12953
-0.0473341
-0.131426
-0.175101
-0.0587891
0.0291194
0.0562534
-0.0295806
-0.112001
-0.110575
-0.0197694
0.0731136
-0.0934494
-0.19373
0.0394922
0.092059
-0.0359926
-0.125401
-0.151022
-0.107085
-0.0715162
-0.0822308
-0.118925
-0.127926
-0.152732
-0.157601
-0.0160239
0.051787
-0.073727
-0.105574
-0.0752272
-0.098405
-0.0870453
-0.0994059
-0.182245
-0.124361
-0.0246646
-0.0541953
-0.0619487
-0.063053
-0.0910992
-0.102346
-0.103898
-0.105686
-0.0882327
-0.0689834
-0.0747594
-0.148017
-0.125048
-0.0263308
0.0229987
-0.045004
-0.0998956
-0.104431
-0.0638653
-0.0155738
-0.0827926
-0.107822
-0.0536091
-0.0732165
-0.0845197
-0.0931819
-0.11141
-0.0710146
-0.0594202
-0.0900983
-0.0980829
-0.130159
-0.21573
-0.243354
-0.0663531
0.0282318
-0.0686366
-0.08037
-0.0662275
-0.0819257
-0.0420106
-0.0685505
-0.133685
-0.0565373
-0.00565333
-0.0409502
-0.00812617
-0.0217119
-0.0641193
-0.0684652
-0.086377
-0.119788
-0.138411
0.0428565
0.0122431
-0.135454
-0.165346
-0.0784839
0.0175176
0.024533
-0.0373118
-0.0826569
-0.084108
-0.0399216
-0.0800656
-0.15222
-0.171453
-0.198573
-0.152363
-0.0628736
-0.0842315
-0.0848484
-0.0561817
-0.0885143
-0.0944368
-0.0891067
-0.178513
-0.238317
-0.0552121
0.0861918
-0.0290762
-0.0790556
-0.0759967
-0.0975157
-0.0835312
-0.0943279
-0.129884
-0.0849747
-0.0193664
-0.000495457
0.104349
0.101389
-0.0150927
-0.0672374
-0.133617
-0.147721
-0.0737834
0.203292
0.113449
-0.0784453
-0.120888
-0.0539757
0.0037047
-0.01498
-0.0317686
-0.0579108
-0.075934
-0.0425202
-0.0920386
-0.135305
-0.083904
-0.0243781
-0.0263317
-0.0398093
-0.0984244
-0.112642
-0.0574689
-0.0951657
-0.097258
-0.0765696
-0.154753
-0.240867
-0.100476
0.0329506
-0.0948321
-0.136845
-0.0550836
-0.0401636
-0.0829634
-0.0922656
-0.0996528
-0.108532
-0.0772383
-0.0313464
0.0401423
-0.0155014
-0.0850073
-0.0801062
-0.133735
-0.0820642
0.0834466
0.129429
0.12894
-0.0869258
-0.128178
-0.0665563
-0.0304774
-0.0345456
-0.045379
-0.0615496
-0.0766236
-0.045304
-0.0928305
-0.126422
-0.0485266
-0.00601318
-0.0192958
-0.0112697
-0.0558581
-0.0997597
-0.0832605
-0.117327
-0.0960976
-0.0682885
-0.103188
-0.175237
-0.15247
-0.121821