/*--------------------------------*- C++ -*----------------------------------*\
  =========                 |
  \\      /  F ield         | OpenFOAM: The Open Source CFD Toolbox
   \\    /   O peration     | Website:  https://openfoam.org
    \\  /    A nd           | Version:  6
     \\/     M anipulation  |
\*---------------------------------------------------------------------------*/
FoamFile
{
    version     2.0;
    format      ascii;
    class       volVectorField;
    location    "0";
    object      U.air;
}
// * * * * * * * * * * * * * * * * * * * * * * * * * * * * * * * * * * * * * //

dimensions      [0 1 -1 0 0 0 0];

internalField   nonuniform List<vector> 
125840
(
(0.0395696 0.00248735 -0.000171231)
(0.0518311 -0.0103601 -1.3444e-05)
(0.0579291 -0.004006 3.89851e-05)
(0.0627241 -0.000383693 -0.000144057)
(0.0677698 -0.0113477 -0.000174754)
(0.0635361 -0.0171427 8.55178e-05)
(0.0634467 -0.013144 0.000188826)
(0.0741635 -0.00142168 -3.20808e-07)
(0.0741854 0.00304862 -0.000243641)
(0.0623231 0.0010746 -0.000264142)
(0.0588753 -0.0186671 -0.000166917)
(0.0626567 -0.033386 -0.000120428)
(0.0681468 -0.0175132 -4.55427e-05)
(0.0766039 -0.00795207 3.08851e-05)
(0.077925 -0.00487831 3.09796e-05)
(0.0715537 -0.000517912 1.00889e-05)
(0.0637869 -0.000446015 -0.000106522)
(0.0570021 0.000397627 -0.000175223)
(0.0561961 0.00130416 -0.000194381)
(0.0586268 -0.001122 -6.61567e-05)
(0.0615213 0.00103281 0.00015168)
(0.058217 0.00385531 8.97169e-05)
(0.063011 -0.000286108 -6.26352e-05)
(0.0799451 -0.000667315 -7.90513e-05)
(0.0838155 -0.00138876 -7.94709e-06)
(0.0752103 0.00574192 -3.02265e-05)
(0.0581886 0.0117378 -0.000231674)
(0.0552589 0.00605022 -0.0002305)
(0.0649666 0.00737563 -5.41854e-05)
(0.0715829 0.0138896 -5.064e-05)
(0.0727303 0.0199299 -4.05077e-07)
(0.067661 0.0171503 0.000117058)
(0.061772 0.00249227 0.000124504)
(0.0613933 -0.00203297 9.71366e-05)
(0.072469 0.00257589 0.000112942)
(0.0735659 0.00599485 9.85258e-05)
(0.0561111 0.0102854 -1.38413e-05)
(0.0416092 0.00697388 -5.93523e-05)
(0.0380529 0.00705674 -8.58484e-05)
(0.0440711 0.0118364 -0.000173622)
(0.0417563 0.00629754 7.55723e-05)
(0.0301458 -0.00364598 0.000296271)
(0.0293274 0.00359705 0.000206224)
(0.0326517 0.0130319 -5.8018e-05)
(0.058223 0.00676882 8.19024e-05)
(0.0722778 -0.00723179 -0.000173021)
(0.0813344 -0.00778082 -0.000105559)
(0.100594 0.00999145 -6.63734e-05)
(0.124966 0.0163269 -0.000214777)
(0.12198 -0.00602517 -0.000140655)
(0.115149 -0.0224581 -0.000101036)
(0.117695 -0.00127367 -0.000116486)
(0.11961 0.0370649 -0.00017502)
(0.0957279 0.0401355 -0.00013931)
(0.0597155 0.0179589 -0.000239122)
(0.0421163 0.0097901 -0.000594399)
(0.0419812 0.00400309 -0.00035173)
(0.0336464 -0.00853296 -3.80271e-07)
(0.0337459 -0.0103854 3.05293e-05)
(0.0372393 -0.00582258 0.000121408)
(0.0324866 0.00168874 0.000148596)
(0.028879 0.0102043 2.9959e-05)
(0.0303506 0.0138714 -3.16214e-05)
(0.0331966 0.000726428 4.44539e-05)
(0.0338075 -0.0109119 0.000113846)
(0.0289148 -0.00340785 9.30272e-05)
(0.0274204 0.00363973 -4.13663e-05)
(0.0338388 0.00432163 -5.50971e-05)
(0.039245 0.00211012 1.95608e-05)
(0.0372538 0.00905727 0.000123288)
(0.0354494 0.0182152 0.000159304)
(0.0418703 0.0058354 7.18938e-05)
(0.0497858 -0.00430832 6.60018e-05)
(0.0566536 0.00206851 9.65112e-05)
(0.0639705 0.00601097 9.61337e-05)
(0.0725522 0.00658621 6.11533e-05)
(0.0714728 0.00218329 -3.92581e-05)
(0.0606466 -0.00621973 -3.43537e-05)
(0.0614606 -0.00577474 -4.83637e-05)
(0.0684646 0.0082035 -7.4256e-05)
(0.0596302 0.0167458 7.50395e-05)
(0.0456833 0.00714266 9.0358e-05)
(0.0512925 0.00536016 5.19537e-05)
(0.0654873 0.0091343 0.000180529)
(0.0561148 -0.0105152 0.000250629)
(0.0414565 -0.0237935 2.60314e-05)
(0.0455379 -0.0147697 7.82296e-05)
(0.048075 0.004235 0.000270155)
(0.0693375 -0.0115758 7.63155e-05)
(0.0728041 0.000391359 1.16587e-05)
(0.0698856 -0.00250394 -4.77937e-05)
(0.0697661 -0.00520085 9.47719e-05)
(0.0630897 0.00692957 0.000230816)
(0.0469009 0.00729289 6.42634e-06)
(0.0477887 0.00502864 -0.000275779)
(0.0574224 0.0115555 -4.21724e-05)
(0.0523075 0.0242859 0.00058257)
(0.0361828 0.0282408 0.000673491)
(0.0327676 0.02946 0.000329058)
(0.042509 0.0348416 0.000158473)
(0.0456533 0.0153348 0.000193161)
(0.0405783 -0.00753125 4.53122e-06)
(0.0453484 -0.0123466 -0.000112257)
(0.0478622 -0.0139818 -3.27705e-05)
(0.0438456 -0.00879489 3.56062e-05)
(0.0403057 0.00111303 0.000135421)
(0.0379195 0.00155195 0.000220047)
(0.0360657 -0.0107057 8.11977e-05)
(0.0367015 -0.0147947 -9.88332e-05)
(0.0355349 -0.0040315 -4.48884e-05)
(0.0328536 0.000869033 6.65752e-05)
(0.0383646 -0.00707454 0.000120044)
(0.0455457 -0.0113576 0.000101332)
(0.0442402 -0.00661248 0.000102268)
(0.0444674 -0.0053653 0.000157189)
(0.0504214 -0.00697798 0.000132325)
(0.0439118 -0.00459628 3.86005e-05)
(0.0397595 -0.00131757 5.88907e-06)
(0.0410777 0.0027801 -1.05167e-05)
(0.0397503 0.00456342 7.98373e-05)
(0.036545 0.00621034 9.26895e-05)
(0.0374683 0.00364037 -5.524e-05)
(0.0431993 -0.00115895 -4.05732e-05)
(0.0469497 0.00111754 0.00017174)
(0.0491108 0.00552824 0.000225812)
(0.055514 0.000484545 6.49544e-05)
(0.0614945 -0.0125924 7.88843e-05)
(0.068386 -0.0156529 0.000145806)
(0.0770927 -0.00510313 -7.25479e-05)
(0.0759922 -0.00364819 -0.00019808)
(0.0719593 -0.0142545 -0.000174361)
(0.0676042 -0.0190733 -4.63777e-05)
(0.059685 -0.00282242 -8.17489e-05)
(0.0423367 -0.00122557 8.303e-06)
(0.0348928 0.000941071 1.23165e-05)
(0.0322012 -0.00215291 -6.30714e-05)
(0.0307734 -0.000864666 5.75226e-05)
(0.0273865 0.00133679 0.000170761)
(0.0311558 0.00630139 3.81051e-05)
(0.0381347 -0.00297158 4.82287e-05)
(0.0355509 -0.0250008 0.000254638)
(0.0335113 -0.0282018 0.000261455)
(0.0423417 -0.0157844 0.000217173)
(0.060641 -0.00519706 0.000284348)
(0.0741898 -0.00868946 0.000225779)
(0.0815104 -0.00664659 6.74591e-06)
(0.0826376 -0.00383552 -4.84394e-05)
(0.0782556 -0.00249155 -0.000106515)
(0.0808781 -3.39542e-05 -0.000141861)
(0.0763498 -0.00735518 2.05515e-05)
(0.0712283 -0.0122102 4.37895e-05)
(0.0728356 -0.00217689 -0.000171866)
(0.0757963 0.00376302 -0.000183499)
(0.0822183 -0.000983111 3.69689e-05)
(0.0889137 -0.0105317 7.87919e-05)
(0.0996953 -0.0141542 -9.7371e-05)
(0.100081 -0.00673963 -0.000113234)
(0.0740395 -0.00155041 5.0779e-06)
(0.0500736 -0.00376581 -0.000100137)
(0.0431507 -0.00582368 -0.000160245)
(0.0408518 -0.00391632 -3.76416e-05)
(0.0435757 -0.00315266 1.75943e-05)
(0.0438692 -0.0016561 5.31719e-05)
(0.0432155 -0.00555003 2.3931e-05)
(0.0486553 -0.0067581 -6.97783e-06)
(0.0622946 -0.00308748 3.34576e-05)
(0.0799666 -0.00486306 -4.27202e-06)
(0.0820043 -0.0123008 3.08799e-05)
(0.0755931 -0.0160505 8.92533e-05)
(0.0933543 -0.00888404 -5.31487e-05)
(0.102305 -0.00707576 -0.000152695)
(0.0777171 -0.0155794 -5.07197e-05)
(0.0665385 -0.0121963 3.34916e-05)
(0.093851 -0.00167669 -5.87674e-05)
(0.115642 0.00885193 -0.000112531)
(0.0933352 0.00621943 -9.41713e-05)
(0.0352859 0.0157967 -5.78543e-05)
(0.0379049 0.00847211 -0.000159484)
(0.0455334 0.00568639 -9.56378e-05)
(0.0469599 0.0010996 1.3122e-05)
(0.0479402 -0.00878323 5.87793e-05)
(0.0573917 -0.0105357 -1.56413e-05)
(0.0674854 0.00277487 -5.73083e-05)
(0.0679731 0.00112923 -2.28118e-05)
(0.0634869 -0.0157123 -0.000179626)
(0.0612848 -0.0199634 -0.000237158)
(0.0643036 -0.018272 -0.000127236)
(0.0725824 -0.0214115 -4.50708e-05)
(0.0736678 -0.0210993 -6.34137e-05)
(0.0691354 -0.0056006 -9.08053e-05)
(0.0706031 0.00646463 -0.000135008)
(0.0729651 0.00753144 -8.18128e-05)
(0.0739581 0.00813207 -9.96086e-06)
(0.07546 0.00178309 -8.63036e-05)
(0.0723344 -0.00143572 -0.00013439)
(0.0666988 0.00743789 -3.08289e-05)
(0.0755275 0.000526316 3.8478e-05)
(0.0892905 -0.0110552 -3.059e-05)
(0.0882787 -0.00632766 -0.000182892)
(0.0877156 0.00176662 -0.000228773)
(0.0974177 0.00805468 -3.91235e-05)
(0.0913033 0.0109966 7.26484e-05)
(0.090873 0.0109324 2.18847e-05)
(0.0865655 0.00665404 -1.95726e-05)
(0.0698291 0.0029326 -9.50442e-05)
(0.0726199 -0.00109709 -0.000135082)
(0.0841878 -0.00503703 5.55516e-06)
(0.0860974 -0.00291405 5.2546e-05)
(0.0826237 -0.00340477 -2.12486e-05)
(0.0794651 -0.0114526 -4.42188e-05)
(0.0856005 -0.00460525 -0.000146256)
(0.0931826 -0.000878821 -0.00018275)
(0.0927004 -0.0154792 -3.66781e-05)
(0.0962472 -0.00417232 -9.15332e-05)
(0.100819 0.0165441 -0.000155606)
(0.0883716 0.00377748 -4.66832e-06)
(0.0637659 -0.0164071 0.00015205)
(0.0555471 -0.0139401 6.63942e-05)
(0.0563405 0.00561398 8.08463e-05)
(0.0449183 0.0199467 8.19659e-05)
(0.0386563 0.0175162 9.81114e-07)
(0.0479159 0.0173276 -9.98926e-05)
(0.059503 0.00475 3.50148e-05)
(0.0664329 -0.00587944 6.53129e-05)
(0.0737171 -0.0143135 -5.98796e-06)
(0.0787135 -0.00800722 -7.42887e-05)
(0.0771003 0.00961376 -5.78285e-05)
(0.0785758 0.0100743 -0.000128212)
(0.0838176 0.00165036 -0.000165361)
(0.079412 -0.0036013 -0.000119213)
(0.0777722 -0.00856555 -0.000189216)
(0.0759037 -0.0115087 -0.000171612)
(0.0636707 -0.00331614 -0.000113791)
(0.0535127 0.00786504 -9.52192e-05)
(0.0549341 0.0107892 -6.13023e-06)
(0.0583256 0.00745551 3.48734e-05)
(0.0601632 0.00624764 -4.16548e-06)
(0.0663698 0.00406495 -3.79491e-06)
(0.0680429 0.00474429 2.54126e-05)
(0.0644447 0.00475468 4.47399e-05)
(0.0675873 -0.00464328 -2.19145e-05)
(0.0652035 -0.00106161 -2.4938e-05)
(0.0546578 0.0122749 2.25424e-06)
(0.052942 0.010622 -6.58452e-05)
(0.060568 0.00222195 -1.89434e-05)
(0.0644439 -0.00439212 7.01245e-05)
(0.0714706 -0.00300901 8.29889e-05)
(0.073611 0.0114749 6.01886e-05)
(0.0686829 0.0169978 3.98358e-05)
(0.0644039 0.00396897 1.40621e-05)
(0.0632592 -0.00943322 -4.59963e-05)
(0.0667221 -0.00760304 -8.02052e-05)
(0.0753383 0.000843472 -7.08866e-05)
(0.0804189 0.00138038 -2.70128e-05)
(0.0770802 0.00616044 6.59367e-05)
(0.0845236 0.00356627 4.5459e-05)
(0.0893506 -0.0114843 -8.04156e-05)
(0.0818324 -0.000577325 -5.87085e-05)
(0.0895402 0.0144301 3.52592e-05)
(0.0994709 0.00116793 5.69282e-05)
(0.0815619 -0.0117514 -5.90719e-05)
(0.0579011 -0.00326914 -0.000203334)
(0.0514516 0.00358327 -1.43865e-05)
(0.0445989 0.00821983 0.000200453)
(0.0480104 0.0114015 0.000179505)
(0.0510051 0.00531499 0.000198609)
(0.0641591 -0.00448736 3.16555e-05)
(0.0755606 -0.00733176 -8.43561e-05)
(0.0822569 -0.0096846 -0.000124305)
(0.0833028 0.000318123 -8.17866e-05)
(0.0792963 0.00989923 5.5318e-05)
(0.0769805 0.00850468 8.68828e-05)
(0.0746148 0.00722908 2.12611e-05)
(0.0706165 0.0107984 -5.30414e-05)
(0.06428 0.0165081 -0.00013987)
(0.0571911 0.0135144 -0.000174323)
(0.0530684 0.00984283 -4.24413e-05)
(0.0518493 0.0121358 3.67037e-05)
(0.0535886 0.00978152 -1.47759e-05)
(0.0580094 0.00616754 -3.89144e-05)
(0.0587023 0.00193498 8.99241e-05)
(0.052335 -0.00239843 0.00011607)
(0.0469947 0.00256448 -1.4846e-06)
(0.0475978 0.00649685 -5.24645e-05)
(0.0466569 0.00150342 -0.000120044)
(0.0434785 -0.00131656 -6.43732e-05)
(0.0366183 0.00692778 5.80002e-05)
(0.0366158 0.0127349 -6.38099e-06)
(0.0453417 0.00698984 -8.01297e-05)
(0.0463029 -0.000287893 -0.000100756)
(0.0446186 -8.12431e-05 -0.000118452)
(0.0467673 0.00421642 -3.33581e-05)
(0.0450959 0.00300719 0.000150796)
(0.0442266 -0.000945411 0.00014814)
(0.0494921 -0.00424183 6.79011e-05)
(0.0505636 -0.00143284 3.97622e-05)
(0.0466837 -0.00179858 6.4169e-05)
(0.046409 -0.0132496 0.000145123)
(0.0569055 -0.0191244 0.000141454)
(0.0719429 -0.0109371 5.07652e-05)
(0.0709127 0.000994785 -5.5081e-05)
(0.0626559 0.00648128 -1.61059e-05)
(0.0615849 0.00840515 2.06162e-05)
(0.0616422 0.0048294 -2.46408e-05)
(0.0544433 0.00794825 2.34123e-05)
(0.0442682 0.0153343 5.75226e-05)
(0.0479631 0.00576409 -1.94455e-05)
(0.0524487 0.00151611 3.4299e-05)
(0.0475578 -0.00392905 5.02537e-05)
(0.0537951 -0.00922405 -3.01997e-05)
(0.0595232 -0.0122305 -3.70212e-05)
(0.0627033 -0.0105806 4.51142e-05)
(0.0560066 -0.00201802 -4.59515e-05)
(0.0501348 0.00538666 -3.2241e-05)
(0.0424257 0.00486938 0.000112607)
(0.0317947 0.00461581 8.16469e-05)
(0.0277833 0.00480825 6.5521e-05)
(0.0284991 0.00733917 0.000151426)
(0.0320872 0.0167373 0.000126991)
(0.0375752 0.0171708 4.60953e-05)
(0.0409384 0.00628861 5.66078e-05)
(0.0413864 0.00253691 0.000134827)
(0.0417976 0.00532992 0.000105585)
(0.0507808 0.0038491 5.64906e-05)
(0.0543681 -0.00562473 9.27389e-05)
(0.0500246 -0.00474294 3.74174e-05)
(0.0506319 0.00443642 2.2399e-05)
(0.0460804 0.00837757 7.68916e-05)
(0.0433451 0.0107764 -2.49049e-05)
(0.0596053 0.0144184 -0.000151259)
(0.0625653 0.0146603 -6.36393e-05)
(0.0614566 0.00672461 3.82121e-05)
(0.0770579 0.00483529 1.75875e-05)
(0.0885769 0.00559765 2.65645e-05)
(0.0899181 0.00446951 6.88053e-05)
(0.0828714 0.0101721 3.0026e-05)
(0.0678808 6.14804e-05 3.17662e-05)
(0.0575116 -0.0182588 8.10218e-05)
(0.0640824 -0.0237483 3.77768e-05)
(0.0691664 -0.0135651 9.26082e-05)
(0.0588147 -0.00342452 2.87276e-05)
(0.0440823 -0.0102373 -0.000242414)
(0.0448527 -0.0105837 -0.000391996)
(0.0487077 0.000389556 -0.000253318)
(0.0436874 0.00612625 7.45658e-06)
(0.0389202 0.005922 5.93099e-05)
(0.0366423 0.00605648 5.44849e-05)
(0.0369456 0.00156765 4.19693e-05)
(0.0380128 -0.00196247 6.00253e-05)
(0.0400518 0.00225436 9.37159e-05)
(0.0468598 0.000848142 4.64379e-05)
(0.0477574 -0.00291111 2.88432e-05)
(0.0520763 -0.00284451 -3.21692e-05)
(0.0553311 -0.00456815 -5.71841e-05)
(0.0468858 -0.00464698 -7.32109e-05)
(0.038097 0.00218937 -0.000162664)
(0.0392349 0.0124675 -0.000106495)
(0.044753 0.00883842 4.29352e-05)
(0.0451147 -0.00209549 0.000120688)
(0.0436978 -0.00436465 0.000156801)
(0.0426949 -0.00560308 8.34042e-05)
(0.040373 -0.00769849 2.99949e-05)
(0.0396117 -0.00174546 0.000132004)
(0.0422903 0.00560106 0.000137185)
(0.0487526 0.00235284 2.62859e-05)
(0.0517894 -0.0041984 3.94089e-06)
(0.0504342 -0.0072952 6.03079e-05)
(0.0489732 -0.0100646 0.000111347)
(0.0446234 -0.0117742 3.32957e-05)
(0.0425095 -0.00740528 -4.86771e-05)
(0.0470263 -0.00041374 7.36315e-06)
(0.0418196 0.00473374 5.86936e-05)
(0.0447464 0.00261441 2.23819e-05)
(0.0609219 0.00551227 0.000110133)
(0.0630447 0.0100885 0.000167611)
(0.0659911 -0.000150881 -1.0436e-05)
(0.0777155 -0.00684931 -3.16887e-05)
(0.0822778 -0.00438849 2.51758e-05)
(0.0804233 0.00305631 -5.73536e-05)
(0.0752332 0.0128961 -6.25009e-06)
(0.0677925 0.00427951 3.11861e-05)
(0.0502129 -0.0111805 -6.34512e-05)
(0.0393618 -0.0105013 -0.000207911)
(0.0371593 -0.00617738 -9.59064e-05)
(0.0262425 0.00542064 0.000141225)
(0.0199067 0.0218929 -8.81223e-05)
(0.0284464 0.0236462 -0.000175359)
(0.0357752 0.0140029 1.46502e-05)
(0.0386073 0.00442703 5.88337e-05)
(0.0408504 -0.000277794 4.56878e-05)
(0.0381569 -0.00032473 6.42812e-05)
(0.0351995 0.00210065 -4.48279e-05)
(0.0401653 0.00261476 -0.000129811)
(0.0457051 -0.00195715 -2.84893e-05)
(0.0480185 -0.00488335 1.17525e-05)
(0.0483124 -0.0020535 -1.88135e-05)
(0.0316291 -0.00899528 0.000152014)
(0.0326071 -0.00152501 5.51405e-05)
(0.0357317 0.00715238 -4.69268e-05)
(0.0377571 0.00677583 0.000107391)
(0.0386674 -0.00379935 0.000302531)
(0.0539448 -0.0126691 0.000250823)
(0.0678911 -0.016375 0.000115736)
(0.0758482 -0.0182032 4.91338e-05)
(0.0895385 -0.00804681 -1.88143e-05)
(0.0865564 0.00230159 -6.57265e-05)
(0.0698496 -0.00101365 -4.94834e-05)
(0.062234 -0.00129934 -6.1888e-05)
(0.0668333 0.000183667 -8.69638e-05)
(0.0694253 -0.00251092 -2.80877e-05)
(0.0671577 -0.00599486 -7.00244e-07)
(0.0547666 -0.00682611 -4.96709e-05)
(0.0398344 -0.00175025 -0.00013433)
(0.035191 0.00443358 -0.000171382)
(0.035674 0.00392133 -4.75376e-05)
(0.0283861 0.00070886 8.21451e-05)
(0.0284739 -0.00346225 -3.66527e-05)
(0.0355799 -0.00614074 -5.2468e-06)
(0.0313638 -0.00244945 0.000109452)
(0.0290737 0.00121982 -5.69934e-05)
(0.0375686 0.00206065 -0.000134689)
(0.0395933 0.00378266 -2.29367e-05)
(0.0358905 0.00652979 0.000129546)
(0.0328449 0.00717922 0.000224757)
(0.0330105 0.00501593 0.000120722)
(0.0368277 0.00616137 -0.000113687)
(0.0405267 0.00951224 -0.000186852)
(0.0405465 -0.00122085 -9.79515e-05)
(0.0328247 -0.0125532 0.00013083)
(0.0272174 0.000147481 0.000313324)
(0.03175 0.00527542 0.000270729)
(0.0375573 -0.00209251 0.000190521)
(0.0392113 -0.00507585 0.000137775)
(0.0428371 -0.00375449 6.26022e-05)
(0.0419437 -0.000461371 5.66317e-05)
(0.0379916 0.00406248 7.89628e-05)
(0.0404385 0.00316888 8.06714e-05)
(0.0410191 -0.00147455 5.25775e-05)
(0.0364552 9.37495e-05 -4.35132e-05)
(0.0331737 -0.00238359 2.82916e-05)
(0.0515425 -0.0210091 -3.85426e-05)
(0.0580115 -0.013984 1.21984e-05)
(0.0702439 -0.00632734 0.000105346)
(0.0824182 -0.0127147 0.000168027)
(0.0741279 -0.0245646 -2.54685e-05)
(0.067338 -0.0266658 -0.000248825)
(0.0699021 -0.0192821 -0.000215789)
(0.0640563 -0.0184385 -0.000120643)
(0.0691956 -0.00954832 -6.0375e-05)
(0.0752401 0.00796732 3.36654e-05)
(0.0684857 0.0102748 3.33011e-05)
(0.0580312 0.00751878 4.08823e-05)
(0.0499515 0.00832273 -7.0761e-06)
(0.0402569 0.00175192 -4.50314e-05)
(0.0381016 -0.00137917 -3.86024e-05)
(0.0386956 0.00340831 9.82907e-06)
(0.0349095 0.0116057 7.32395e-06)
(0.0360803 0.0139185 3.48554e-05)
(0.0366378 0.00204384 0.000137304)
(0.0345205 -0.00663593 0.000178408)
(0.0369686 0.000338689 -7.75468e-06)
(0.0438649 0.0012512 -0.000119615)
(0.0439102 -0.00210186 2.7504e-05)
(0.0464317 0.0017066 4.89467e-05)
(0.0520338 0.00197966 -3.04076e-05)
(0.0555144 0.00163823 -9.05111e-05)
(0.0553502 -0.00323883 -0.000111747)
(0.0533019 -0.0193011 0.000177068)
(0.060095 -0.0235238 0.000210264)
(0.0893098 -0.00165433 -7.29335e-06)
(0.0958641 0.0173815 -3.50072e-05)
(0.100713 0.0144966 -0.00012488)
(0.106061 0.00135545 -0.000319392)
(0.0964219 -0.00342088 -0.000268182)
(0.0888791 -0.00212712 -0.000158519)
(0.0821908 -0.00674566 -8.82017e-05)
(0.0671738 -0.0123995 -3.66569e-05)
(0.0573735 -0.0124793 2.93026e-05)
(0.0541332 -0.00959869 0.000108021)
(0.0496384 -0.006733 7.44134e-05)
(0.0486087 -0.00451851 -4.73216e-05)
(0.0522799 -0.00241361 -6.08042e-05)
(0.0527152 0.00114495 4.67146e-05)
(0.0500785 -0.00718298 5.86829e-05)
(0.0716433 -0.00271475 -0.000257487)
(0.0721333 0.000727848 -0.000336844)
(0.0916727 -0.00609255 -0.000369736)
(0.132455 -0.0120074 -0.000352742)
(0.136509 0.00888191 -0.000205998)
(0.093963 0.0230083 -0.000181921)
(0.0662632 0.0173382 -0.000159584)
(0.0519262 0.0016334 -0.000114908)
(0.049025 -0.00499663 -8.44945e-05)
(0.051923 0.000170326 6.11887e-05)
(0.0492395 0.00358113 0.000112026)
(0.0415564 0.00185149 5.81008e-05)
(0.0385241 0.00714503 5.78896e-05)
(0.0371242 0.00739871 -2.05481e-05)
(0.0385486 0.000195833 -5.63342e-05)
(0.0382346 -0.000715841 -4.42021e-05)
(0.0425764 0.00403233 8.1093e-07)
(0.0506442 7.88379e-05 0.000114624)
(0.041483 -0.0143421 0.000109096)
(0.041356 -0.0201445 -1.96179e-05)
(0.0528914 -0.00593666 -6.18748e-06)
(0.0609391 -0.000495203 0.000102962)
(0.0624416 -0.0117032 8.4545e-05)
(0.0704242 -0.00944595 -2.69018e-05)
(0.091395 0.00492513 -0.0001223)
(0.116609 0.0154984 -0.000108994)
(0.134024 0.0157547 -9.85868e-05)
(0.121352 -0.0123066 -0.000171266)
(0.0858586 -0.0253638 -0.000171951)
(0.0723969 0.00159534 -1.65363e-05)
(0.0700639 0.0141772 0.000119062)
(0.0941746 0.0122243 -3.96878e-05)
(0.127811 0.0302026 -0.000191428)
(0.121597 0.0403446 -0.000240585)
(0.104244 0.0275446 -0.000256084)
(0.105263 0.015531 -0.000246452)
(0.108772 0.0115833 -0.000198505)
(0.0983315 -0.000964277 -0.000123115)
(0.0876503 -0.0114569 -3.26659e-05)
(0.0804229 -0.00367129 -1.46262e-05)
(0.0704655 0.00656019 -9.23708e-05)
(0.0717175 0.0062826 -0.00012032)
(0.0671851 0.000143357 -7.20947e-05)
(0.065795 -0.00393721 -9.39054e-05)
(0.0417844 0.0131287 -7.27025e-05)
(0.047389 0.0154999 7.59914e-05)
(0.0433575 0.00431683 0.000168731)
(0.0409388 -0.00388164 0.000149602)
(0.0411404 0.0067046 0.000364427)
(0.0373228 0.0147185 0.000440416)
(0.0419788 0.00961934 0.000293984)
(0.0409801 0.00373229 5.45599e-05)
(0.0367481 0.00155129 -0.000114353)
(0.0413477 -0.00377406 -4.82793e-05)
(0.0437923 -0.00375199 0.0001)
(0.0401981 0.00303411 1.70499e-05)
(0.0438859 0.00657636 -8.03808e-05)
(0.0635052 0.00726314 -9.36777e-05)
(0.0821419 0.0058415 -3.77325e-05)
(0.075527 0.00926745 -3.38939e-05)
(0.0803958 0.00554139 -9.44962e-05)
(0.0978332 -0.000561364 -4.72514e-05)
(0.0873358 -0.00282842 -0.000117155)
(0.070097 -0.00583599 -0.000228245)
(0.0706147 -0.00431346 -0.000158674)
(0.0739492 -0.00907833 -4.38418e-05)
(0.0651874 -0.00866036 -7.18925e-05)
(0.059617 0.000579191 -0.000189184)
(0.0698407 0.00234546 -8.42013e-05)
(0.0760811 -0.00400211 0.000234198)
(0.0692892 0.00273741 0.000336438)
(0.052235 0.0177713 2.33966e-05)
(0.0407061 0.014517 -0.000230424)
(0.0429083 0.00194583 -1.99521e-05)
(0.0528669 -0.00807285 6.40471e-05)
(0.0687414 -0.00176043 -2.68513e-05)
(0.0791276 0.0205859 0.000224229)
(0.0767272 0.0361484 0.00044695)
(0.0735471 0.0312093 0.000298034)
(0.0781269 0.0211467 5.26237e-05)
(0.0891105 0.0182128 8.60305e-06)
(0.0806305 0.0142575 -3.73364e-05)
(0.0667694 0.00529914 -0.000133619)
(0.0601722 0.00566828 -7.17524e-05)
(0.055644 0.0116044 2.13113e-05)
(0.05386 0.0116238 8.24265e-05)
(0.0430998 0.0111663 -2.63176e-05)
(0.03684 0.00956194 -0.000171991)
(0.0773635 0.00820222 1.17729e-05)
(0.0757312 -0.00124331 0.000111341)
(0.0552229 -0.020655 0.000234795)
(0.0425688 -0.0271799 4.17268e-05)
(0.0498974 -0.0201172 -5.76188e-05)
(0.0560745 -0.0166236 4.59343e-05)
(0.0484581 -0.00913628 8.89956e-05)
(0.0375763 0.00734968 5.21916e-05)
(0.0342239 0.0123201 3.02662e-05)
(0.0336467 0.00187588 -2.99839e-07)
(0.0372829 -0.0053554 -6.8447e-05)
(0.0417468 0.00198929 9.29452e-06)
(0.0396141 0.00130546 0.000152976)
(0.0441912 -0.00244114 0.000144183)
(0.0509767 0.00333021 4.58082e-05)
(0.0545345 0.00635539 6.09119e-05)
(0.0674471 0.000197491 2.0662e-05)
(0.0711514 -0.00191973 -1.83399e-05)
(0.074496 0.0127604 -3.08914e-05)
(0.0691476 0.017194 -5.61053e-05)
(0.0584884 0.00905001 -1.92791e-05)
(0.0512592 0.00691278 -7.80954e-05)
(0.0407033 0.00848672 -0.000111827)
(0.0385813 0.0137355 -0.000101546)
(0.0372158 0.00351668 4.80341e-05)
(0.0330866 -0.0190953 0.000100646)
(0.0344273 -0.0178273 6.50938e-05)
(0.0366943 0.00310744 0.000177101)
(0.0427071 0.0110298 0.000163747)
(0.0478638 -0.00302741 1.51751e-05)
(0.0483726 -0.00743494 -7.10122e-05)
(0.0451023 -0.000517063 -2.65162e-05)
(0.0468041 -0.00319121 0.000105119)
(0.0502788 -0.00644421 0.000222879)
(0.0521075 -0.00303572 0.000212694)
(0.0644488 0.00206284 0.00012967)
(0.07336 0.0105423 0.000130014)
(0.0690248 0.0140035 0.00016893)
(0.062384 0.00902814 0.000144761)
(0.0516278 0.00611525 9.39599e-05)
(0.0535223 0.00412498 7.22976e-05)
(0.0631918 0.00356182 5.04223e-05)
(0.0694035 0.012039 9.79185e-05)
(0.0725723 0.0143916 0.00010969)
(0.0912072 0.00745393 -1.66256e-05)
(0.0962175 0.00695272 -2.05707e-05)
(0.0800039 -0.00436803 -0.000124341)
(0.0615201 -0.0088343 -0.000168162)
(0.0526722 -0.0113594 1.33275e-05)
(0.0466968 -0.00741941 -0.000101201)
(0.0474502 0.00236148 -0.000274235)
(0.0513752 0.00256281 -4.02413e-05)
(0.0531063 -0.00371133 0.000179614)
(0.0518155 -0.0106569 0.000184872)
(0.0557528 -0.00760734 3.63854e-05)
(0.0592142 -0.00120618 3.04107e-05)
(0.0520505 -0.0136081 0.000113772)
(0.0430199 -0.0190905 7.85355e-05)
(0.0434821 -0.00653423 3.50002e-05)
(0.0493075 -0.00335722 2.30578e-05)
(0.0492728 -0.00104193 -1.15378e-05)
(0.0482538 -0.00109172 -2.00764e-06)
(0.0493137 0.00311735 0.000143257)
(0.0482133 0.0114572 0.000153164)
(0.0469656 0.00953194 2.9946e-05)
(0.0454681 0.00958008 2.12913e-05)
(0.0431488 0.0135062 2.56848e-05)
(0.0424016 0.0138463 8.73195e-05)
(0.0387329 -0.00189558 5.02993e-05)
(0.0394285 -0.0149277 -0.000215129)
(0.0515675 -0.0113825 -0.000236564)
(0.0512314 -0.00612349 3.76965e-05)
(0.0434046 -0.00518096 0.000183241)
(0.0357397 -0.00116124 5.61249e-05)
(0.0328547 0.00255488 -2.89777e-05)
(0.0374922 -0.00101184 6.29153e-05)
(0.0383173 -0.00621287 4.27342e-05)
(0.0344886 -0.0067836 -7.37022e-05)
(0.042719 -0.0109837 -8.80592e-05)
(0.0538563 -0.00723243 -6.01968e-05)
(0.0524461 0.000459261 4.58054e-05)
(0.0521154 8.9942e-05 8.3209e-05)
(0.0495393 0.00228228 3.2863e-05)
(0.0496556 0.00181293 2.99439e-05)
(0.0543644 -0.00466615 4.32217e-05)
(0.0580959 -0.00564788 2.48292e-06)
(0.0676588 -0.00349936 6.20638e-06)
(0.0769991 -0.000652722 3.49509e-05)
(0.0785421 -9.30055e-05 -4.58602e-05)
(0.0854308 0.00084233 3.99047e-05)
(0.0814075 0.00760492 -1.64076e-05)
(0.0734561 0.00773905 -0.000144115)
(0.0814672 -0.00176412 -0.000214979)
(0.0891273 0.00791872 -0.000138996)
(0.0960498 0.0185799 -2.70879e-05)
(0.110859 0.00616049 -7.49536e-05)
(0.109449 -0.00701228 -0.000102532)
(0.0913458 -0.010307 -0.000158827)
(0.0757858 -0.00195768 -0.000161861)
(0.063753 -0.000150022 3.72529e-05)
(0.0456633 -0.00608262 -6.17218e-05)
(0.0412143 0.00029551 -0.000391871)
(0.0444713 0.00485189 -0.000266676)
(0.0429816 -0.000467013 -1.00491e-05)
(0.0392001 -0.00266909 7.57526e-05)
(0.0349142 -0.00441881 3.23473e-05)
(0.0318812 -0.00450522 -3.21955e-06)
(0.0373645 0.00232588 1.61889e-05)
(0.0404159 0.00610438 5.00976e-05)
(0.0370042 0.00630232 9.41937e-05)
(0.0400408 0.00843101 7.04241e-05)
(0.0460349 0.00814448 1.28057e-05)
(0.0459806 0.00631195 -0.000111559)
(0.0470593 0.00467136 -0.000160709)
(0.0533378 0.00251824 -4.97182e-05)
(0.0488432 -0.00566145 8.14268e-05)
(0.0382975 -0.0115768 1.43389e-05)
(0.0385965 -0.00764998 7.67478e-06)
(0.0418328 -0.00833644 0.000112397)
(0.0432016 -0.0139731 8.45733e-05)
(0.0421125 -0.00914587 5.69118e-05)
(0.0402312 -0.00910761 0.000144104)
(0.0436797 -0.0116741 5.97018e-05)
(0.0456215 -0.00233846 5.51606e-06)
(0.046524 -0.00184232 8.70176e-05)
(0.0476863 -0.00450942 8.85627e-05)
(0.0519684 -0.000774679 2.20819e-05)
(0.0645979 -0.00368763 -3.84723e-05)
(0.0736358 -0.00614328 -4.44086e-05)
(0.0650534 -0.00260949 -1.71211e-05)
(0.0612696 -0.000592261 -5.57877e-05)
(0.0711433 -0.000917819 -0.000106248)
(0.0387756 -0.00267978 0.000123165)
(0.0408241 0.000396532 5.54244e-05)
(0.0341944 0.011547 0.000100826)
(0.0296265 0.012934 6.5607e-05)
(0.0350011 0.0060668 -3.54124e-05)
(0.047777 0.00205488 6.37053e-05)
(0.0550195 0.00071789 0.00018979)
(0.0505397 0.0062772 0.000101706)
(0.0421264 0.01342 -2.71699e-05)
(0.0378144 0.0175136 -7.63268e-05)
(0.0387632 0.0130809 -8.03958e-07)
(0.036139 0.00623588 4.78735e-07)
(0.0302703 0.0110046 -6.08339e-05)
(0.0311476 0.0207107 8.09692e-05)
(0.0336351 0.0156085 0.000122596)
(0.0339349 -0.00217596 1.49746e-05)
(0.0362722 -0.00802018 3.77815e-05)
(0.0354471 0.000830301 -3.67154e-05)
(0.038634 0.000359944 -8.98214e-05)
(0.0429315 -0.0013523 3.7348e-05)
(0.0398958 0.00179779 4.05565e-05)
(0.04504 -0.00170565 1.94966e-05)
(0.0490703 -0.00470052 0.000157856)
(0.0382565 -0.00013781 0.000211315)
(0.0300544 0.00660768 0.000125489)
(0.0389887 0.00443125 1.71935e-06)
(0.0551526 -0.0030135 2.41372e-06)
(0.061341 -0.00585002 -1.27236e-05)
(0.0580094 -0.00378896 -0.000102377)
(0.0660041 -0.00756034 -6.04548e-05)
(0.0735447 -0.0101402 -3.44609e-05)
(0.0630928 -0.00686452 -0.000140205)
(0.0584983 -0.0125181 -5.75823e-05)
(0.0556526 -0.019592 -7.41254e-06)
(0.0450101 -0.0123249 -9.31775e-05)
(0.0451601 -0.00820317 -3.65288e-06)
(0.0536451 -0.013429 6.4944e-05)
(0.0564914 -0.016212 5.7768e-05)
(0.0576741 -0.00982317 7.99129e-05)
(0.0547044 -0.00380896 5.08627e-05)
(0.0480973 0.000635368 3.51734e-05)
(0.0396089 0.00364364 5.4632e-05)
(0.0334422 -0.00236602 0.000142739)
(0.034074 -0.0040917 0.000214028)
(0.0356532 -0.0200485 2.73618e-05)
(0.0458694 -0.00948236 7.23886e-05)
(0.0451491 -0.00376758 0.000210888)
(0.0424933 -0.000629787 0.000198549)
(0.0419729 -0.000446373 8.91874e-05)
(0.0400711 -0.00294872 -6.72299e-05)
(0.0408624 -0.00318668 -0.000119949)
(0.0401002 -0.00226857 5.58539e-05)
(0.0394834 0.00217186 0.000157952)
(0.0441344 0.00604842 0.000143823)
(0.0542005 0.00370263 6.55846e-05)
(0.0593882 0.00236796 7.38846e-05)
(0.0609793 -0.00195799 0.000255544)
(0.0541619 -0.0135882 0.000416936)
(0.0535227 -0.0140686 0.000377063)
(0.0506821 -0.00743407 0.000117737)
(0.0488279 -0.00967005 -4.93055e-05)
(0.0566517 0.000476936 -4.91952e-05)
(0.0654444 0.00353483 -8.39307e-05)
(0.0749773 -0.00245908 -5.59698e-05)
(0.0666133 0.00134292 -2.35485e-05)
(0.0698349 -0.00436504 -7.65384e-05)
(0.0822813 -0.011295 -3.59974e-05)
(0.0600844 -0.00894081 7.88039e-05)
(0.0428887 -0.00183078 1.67616e-05)
(0.0506666 0.00254045 -0.000185427)
(0.0717497 -0.000573045 -0.000243967)
(0.0844963 0.00209012 -0.000141763)
(0.0795411 0.00453734 -0.000122298)
(0.0890046 -0.00927036 -5.40807e-05)
(0.10257 -0.00740138 1.3385e-05)
(0.0985547 0.007413 -3.19646e-05)
(0.0928231 -0.00295428 -1.34524e-05)
(0.0834575 -0.00759418 5.43675e-05)
(0.0694125 0.000706568 1.55614e-05)
(0.0638635 -0.00556019 -5.58048e-05)
(0.0528471 -0.0103518 -0.000119714)
(0.0447091 -0.00616943 -0.000272857)
(0.0429562 -0.0016136 -0.000253065)
(0.039585 -0.00282127 -7.74705e-05)
(0.0361994 -0.00625382 7.12831e-05)
(0.034253 -0.00905731 0.000207763)
(0.030621 -0.0221492 0.000187421)
(0.0277994 -0.0296896 0.000101247)
(0.055633 -0.00972112 -0.000311506)
(0.0709042 -0.011326 -0.000137116)
(0.0698216 -0.0113452 -2.53096e-05)
(0.0617005 -0.011548 -6.94391e-05)
(0.0820475 -0.00240143 -0.000121843)
(0.0853711 0.00962699 -2.53944e-05)
(0.0754247 0.00801327 3.88184e-05)
(0.0748519 -0.0031222 -2.53825e-05)
(0.0787693 -0.00762052 -5.2391e-05)
(0.0932674 -0.00483713 -7.69084e-05)
(0.101828 -0.00212854 -5.16809e-05)
(0.100921 -0.00601729 -4.59285e-05)
(0.112508 -0.0127673 -9.87662e-05)
(0.09701 -0.0241599 -9.67663e-05)
(0.0729157 -0.0225492 -0.000131635)
(0.0608776 -0.00616862 -6.46723e-05)
(0.0525604 -0.00504026 -4.97755e-06)
(0.0512123 -0.000619026 6.29523e-05)
(0.0532998 0.00432869 1.31109e-05)
(0.0592555 0.00644288 -8.63313e-05)
(0.0564494 0.00887438 1.84422e-05)
(0.0461794 -0.00107845 -1.8351e-05)
(0.0530001 -0.00166811 -0.000118204)
(0.0594287 0.00183427 -5.25468e-05)
(0.051545 0.00591879 3.59197e-06)
(0.0497401 0.015813 -0.000102184)
(0.0567983 0.0112619 -7.12131e-05)
(0.0641481 0.00766727 0.000142357)
(0.0702231 0.0134162 -8.61837e-06)
(0.0770775 -0.00361301 -0.00022213)
(0.0740937 -0.0110678 -3.39076e-05)
(0.0762249 0.00417376 0.000116513)
(0.07804 -0.00287922 6.29519e-06)
(0.0804379 -0.0144955 -2.75943e-05)